ITEM: TIMESTEP
120
ITEM: NUMBER OF SURFS
6916
ITEM: BOX BOUNDS oo rr rr
-20 20
-20 20
-20 20
ITEM: SURFS f_save[1] f_save[2] f_save[3] f_save[4] f_save[5] f_save[6] f_save[7] f_save[8] 
1.34121e-18 -1.00633e-19 0 0 -1.34121e-18 0 0 0 
6.04088e-20 0 0 -1.81289e-19 0 0 -6.04088e-20 0 
0 0 0 0 0 0 0 0 
1.38896e-18 -3.38559e-20 0 0 -1.38896e-18 0 0 1.28729e-30 
1.32451e-18 -1.65563e-21 0 0 -1.32451e-18 0 0 0 
1.18514e-18 -1.48143e-21 0 0 -1.18514e-18 0 0 0 
1.26176e-18 -1.5772e-21 0 0 -1.26176e-18 0 0 0 
1.36899e-18 -3.33692e-20 0 0 -1.36899e-18 0 0 1.25626e-30 
1.30988e-18 -3.11095e-20 0 0 -1.30988e-18 0 0 0 
1.39165e-18 -3.30517e-20 0 0 -1.39165e-18 0 0 0 
1.41708e-18 -3.36558e-20 0 0 -1.41708e-18 0 0 0 
1.40209e-18 -3.32995e-20 0 0 -1.40209e-18 0 0 0 
1.44046e-18 -3.51113e-20 0 0 -1.44046e-18 0 0 0 
1.39531e-18 -3.31386e-20 0 0 -1.39531e-18 0 0 0 
1.37235e-18 -3.25934e-20 0 0 -1.37235e-18 0 0 0 
1.33853e-18 -3.26269e-20 0 0 -1.33853e-18 0 0 0 
1.37234e-18 -3.34508e-20 0 0 -1.37234e-18 0 0 1.26548e-30 
1.39514e-18 -3.31346e-20 0 0 -1.39514e-18 0 0 1.29523e-30 
1.38659e-18 -3.29317e-20 0 0 -1.38659e-18 0 0 0 
1.365e-18 -3.32719e-20 0 0 -1.365e-18 0 0 1.26227e-30 
1.36345e-18 -3.23819e-20 0 0 -1.36345e-18 0 0 0 
1.36871e-18 -3.25068e-20 0 0 -1.36871e-18 0 0 0 
1.38845e-18 -3.38435e-20 0 0 -1.38845e-18 0 0 0 
1.36434e-18 -3.24033e-20 0 0 -1.36434e-18 0 0 0 
1.43981e-18 -3.41953e-20 0 0 -1.43981e-18 0 0 0 
1.37296e-18 -3.26077e-20 0 0 -1.37296e-18 0 0 0 
1.41733e-18 -1.77167e-21 0 0 -1.41733e-18 0 0 0 
1.36688e-18 -3.24633e-20 0 0 -1.36688e-18 0 0 0 
1.38837e-18 -3.29737e-20 0 0 -1.38837e-18 0 0 0 
1.31169e-18 -1.63962e-21 0 0 -1.31169e-18 0 0 0 
1.26603e-18 -3.00682e-20 0 0 -1.26603e-18 0 0 0 
1.37816e-18 -3.27312e-20 0 0 -1.37816e-18 0 0 0 
1.90028e-18 -2.37535e-21 0 0 -1.90028e-18 0 0 0 
1.34969e-18 -3.28986e-20 0 0 -1.34969e-18 0 0 1.23939e-30 
1.40113e-18 -3.3277e-20 0 0 -1.40113e-18 0 0 0 
1.49489e-18 -1.86862e-21 0 0 -1.49489e-18 0 0 0 
1.37969e-18 -3.363e-20 0 0 -1.37969e-18 0 0 1.27066e-30 
1.36389e-18 -3.23925e-20 0 0 -1.36389e-18 0 0 0 
1.50032e-18 -1.8754e-21 0 0 -1.50032e-18 0 0 0 
1.29907e-18 -3.08529e-20 0 0 -1.29907e-18 0 0 0 
1.32692e-18 -3.23437e-20 0 0 -1.32692e-18 0 0 0 
1.65343e-18 -2.0668e-21 0 0 -1.65343e-18 0 0 0 
1.31493e-18 -3.12297e-20 0 0 -1.31493e-18 0 0 0 
1.40531e-18 -3.42543e-20 0 0 -1.40531e-18 0 0 0 
1.49244e-18 -1.86555e-21 0 0 -1.49244e-18 0 0 0 
1.41419e-18 -3.35873e-20 0 0 -1.41419e-18 0 0 0 
1.35665e-18 -3.22205e-20 0 0 -1.35665e-18 0 0 0 
1.68319e-18 -2.10399e-21 0 0 -1.68319e-18 0 0 0 
1.32754e-18 -1.65944e-21 0 0 -1.32754e-18 0 0 0 
1.32873e-18 -1.66091e-21 0 0 -1.32873e-18 0 0 0 
1.3774e-18 -3.27133e-20 0 0 -1.3774e-18 0 0 1.2695e-30 
1.3563e-18 -3.22122e-20 0 0 -1.3563e-18 0 0 0 
1.35078e-18 -3.20812e-20 0 0 -1.35078e-18 0 0 1.24226e-30 
1.55991e-18 -1.94989e-21 0 0 -1.55991e-18 0 0 0 
1.38613e-18 -3.29206e-20 0 0 -1.38613e-18 0 0 0 
1.3516e-18 -3.21006e-20 0 0 -1.3516e-18 0 0 0 
1.46438e-18 -3.47791e-20 0 0 -1.46438e-18 0 0 0 
1.64475e-18 -2.05594e-21 0 0 -1.64475e-18 0 0 0 
1.43917e-18 -3.41802e-20 0 0 -1.43917e-18 0 0 0 
1.41037e-18 -3.34964e-20 0 0 -1.41037e-18 0 0 0 
1.31415e-18 -3.1211e-20 0 0 -1.31415e-18 0 0 0 
1.82246e-18 -2.2781e-21 0 0 -1.82246e-18 0 0 0 
1.30261e-18 -3.0937e-20 0 0 -1.30261e-18 0 0 0 
1.24884e-18 -3.04404e-20 0 0 -1.24884e-18 0 0 1.15679e-30 
1.42831e-18 -1.78541e-21 0 0 -1.42831e-18 0 0 0 
1.29077e-18 -3.06558e-20 0 0 -1.29077e-18 0 0 0 
1.33027e-18 -3.1594e-20 0 0 -1.33027e-18 0 0 0 
1.57745e-18 -1.97182e-21 0 0 -1.57745e-18 0 0 0 
1.2829e-18 -3.04689e-20 0 0 -1.2829e-18 0 0 0 
1.36548e-18 -3.24302e-20 0 0 -1.36548e-18 0 0 0 
1.57001e-18 -1.96251e-21 0 0 -1.57001e-18 0 0 0 
1.40956e-18 -3.3477e-20 0 0 -1.40956e-18 0 0 0 
1.31526e-18 -3.12375e-20 0 0 -1.31526e-18 0 0 0 
1.37558e-18 -1.71947e-21 0 0 -1.37558e-18 0 0 0 
1.64931e-18 -2.06165e-21 0 0 -1.64931e-18 0 0 0 
1.4047e-18 -3.33615e-20 0 0 -1.4047e-18 0 0 0 
1.45487e-18 -3.45532e-20 0 0 -1.45487e-18 0 0 0 
1.50235e-18 -1.87794e-21 0 0 -1.50235e-18 0 0 0 
1.38304e-18 -3.28471e-20 0 0 -1.38304e-18 0 0 0 
1.31398e-18 -3.12069e-20 0 0 -1.31398e-18 0 0 0 
1.40586e-18 -3.33893e-20 0 0 -1.40586e-18 0 0 0 
1.38739e-18 -3.29505e-20 0 0 -1.38739e-18 0 0 0 
1.40112e-18 -3.32767e-20 0 0 -1.40112e-18 0 0 0 
1.40651e-18 -3.42839e-20 0 0 -1.40651e-18 0 0 0 
1.38639e-18 -3.46598e-20 0 0 -1.38639e-18 0 0 0 
1.34666e-18 -3.36664e-20 0 0 -1.34666e-18 0 0 0 
1.29465e-18 -3.23663e-20 0 0 -1.29465e-18 0 0 0 
1.33345e-18 -3.33364e-20 0 0 -1.33345e-18 0 0 0 
1.35791e-18 -1.1678e-18 0 0 -1.35791e-18 0 0 1.25268e-30 
1.37091e-18 -6.51184e-19 0 0 -1.37091e-18 0 0 1.26397e-30 
1.36604e-18 -6.48869e-19 0 0 -1.36604e-18 0 0 0 
1.35529e-18 -6.43762e-19 0 0 -1.35529e-18 0 0 0 
1.35253e-18 -6.59357e-19 0 0 -1.35253e-18 0 0 0 
1.37616e-18 -1.1835e-18 0 0 -1.37616e-18 0 0 1.26962e-30 
1.37184e-18 -6.51625e-19 0 0 -1.37184e-18 0 0 0 
1.3561e-18 -6.44145e-19 0 0 -1.3561e-18 0 0 0 
1.36869e-18 -6.50128e-19 0 0 -1.36869e-18 0 0 0 
1.35969e-18 -6.62848e-19 0 0 -1.35969e-18 0 0 0 
1.37654e-18 -3.44135e-20 0 0 -1.37654e-18 0 0 1.26682e-30 
1.28079e-18 -3.20198e-20 0 0 -1.28079e-18 0 0 0 
1.48024e-18 -3.70062e-20 0 0 -1.48024e-18 0 0 1.3573e-30 
2.93261e-21 0 0 -1.71557e-20 0 0 -2.93261e-21 0 
0 0 0 0 0 0 0 0 
1.78809e-21 4.24672e-23 0 0 1.78809e-21 0 0 0 
0 0 0 0 0 0 0 0 
1.75126e-21 4.15924e-23 0 0 1.75126e-21 0 0 0 
5.33309e-22 1.26661e-23 0 0 5.33309e-22 0 0 0 
2.85669e-21 6.78465e-23 0 0 2.85669e-21 0 0 0 
1.30732e-20 3.10489e-22 0 0 1.30732e-20 0 0 0 
2.22536e-21 5.28523e-23 0 0 2.22536e-21 0 0 0 
3.96122e-21 9.40788e-23 0 0 3.96122e-21 0 0 0 
1.2747e-20 1.55354e-22 0 0 1.2747e-20 0 0 0 
1.91526e-21 4.54876e-23 0 0 1.91526e-21 0 0 1.68941e-33 
5.64691e-21 1.34114e-22 0 0 5.64691e-21 0 0 0 
4.69164e-21 1.11426e-22 0 0 4.69164e-21 0 0 0 
4.51465e-21 1.07223e-22 0 0 4.51465e-21 0 0 0 
3.91085e-21 9.28827e-23 0 0 3.91085e-21 0 0 0 
3.4295e-21 8.14504e-23 0 0 3.4295e-21 0 0 0 
4.8953e-21 1.16263e-22 0 0 4.8953e-21 0 0 0 
0 0 0 0 0 0 0 0 
5.49318e-21 1.30463e-22 0 0 5.49318e-21 0 0 0 
0 0 0 0 0 0 0 0 
0 0 0 0 0 0 0 0 
2.04623e-21 4.85979e-23 0 0 2.04623e-21 0 0 0 
3.78384e-21 8.98661e-23 0 0 3.78384e-21 0 0 0 
0 0 0 0 0 0 0 0 
0 0 0 0 0 0 0 0 
3.56153e-21 8.45863e-23 0 0 3.56153e-21 0 0 0 
0 0 0 0 0 0 0 0 
0 0 0 0 0 0 0 0 
1.31476e-21 3.12255e-23 0 0 1.31476e-21 0 0 0 
6.56114e-22 1.55827e-23 0 0 6.56114e-22 0 0 0 
4.96082e-21 1.1782e-22 0 0 4.96082e-21 0 0 0 
3.16344e-21 7.51316e-23 0 0 3.16344e-21 0 0 0 
0 0 0 0 0 0 0 0 
1.69441e-21 4.02422e-23 0 0 1.69441e-21 0 0 0 
7.04948e-22 1.67425e-23 0 0 7.04948e-22 0 0 0 
0 0 0 0 0 0 0 0 
0 0 0 0 0 0 0 0 
4.78117e-22 1.13553e-23 0 0 4.78117e-22 0 0 0 
5.17928e-22 1.23008e-23 0 0 5.17928e-22 0 0 0 
4.86377e-21 1.15514e-22 0 0 4.86377e-21 0 0 0 
0 0 0 0 0 0 0 0 
5.83708e-21 1.38631e-22 0 0 5.83708e-21 0 0 0 
1.00273e-21 2.38148e-23 0 0 1.00273e-21 0 0 0 
0 0 0 0 0 0 0 0 
7.76298e-21 1.84371e-22 0 0 7.76298e-21 0 0 0 
5.38399e-21 1.2787e-22 0 0 5.38399e-21 0 0 0 
2.19311e-21 5.20864e-23 0 0 2.19311e-21 0 0 0 
0 0 0 0 0 0 0 0 
1.44096e-21 3.51235e-23 0 0 1.44096e-21 0 0 0 
0 0 0 0 0 0 0 0 
3.70051e-21 9.01998e-23 0 0 3.70051e-21 0 0 3.53911e-33 
2.88253e-21 6.84602e-23 0 0 2.88253e-21 0 0 0 
5.50902e-21 1.34282e-22 0 0 5.50902e-21 0 0 0 
1.92208e-21 4.68506e-23 0 0 1.92208e-21 0 0 1.6461e-33 
3.61823e-21 8.59332e-23 0 0 3.61823e-21 0 0 0 
0 0 0 0 0 0 0 0 
1.15342e-21 2.81148e-23 0 0 1.15342e-21 0 0 0 
0 0 0 0 0 0 0 0 
0 0 0 0 0 0 0 0 
0 0 0 0 0 0 0 0 
0 0 0 0 0 0 0 0 
0 0 0 0 0 0 0 0 
0 0 0 0 0 0 0 0 
0 0 0 0 0 0 0 0 
1.81842e-21 4.31875e-23 0 0 1.81842e-21 0 0 0 
0 0 0 0 0 0 0 0 
3.72035e-21 9.06834e-23 0 0 3.72035e-21 0 0 0 
3.34214e-21 7.93761e-23 0 0 3.34214e-21 0 0 0 
0 0 0 0 0 0 0 0 
1.72161e-21 4.19643e-23 0 0 1.72161e-21 0 0 0 
6.36778e-22 1.51235e-23 0 0 6.36778e-22 0 0 6.75762e-34 
0 0 0 0 0 0 0 0 
0 0 0 0 0 0 0 0 
5.58414e-21 1.32624e-22 0 0 5.58414e-21 0 0 0 
1.07376e-20 2.55019e-22 0 0 1.07376e-20 0 0 0 
2.46316e-21 5.85002e-23 0 0 2.46316e-21 0 0 0 
7.49496e-22 1.78006e-23 0 0 7.49496e-22 0 0 0 
1.6825e-21 3.99596e-23 0 0 1.6825e-21 0 0 1.68941e-33 
4.38851e-21 1.0697e-22 0 0 4.38851e-21 0 0 3.95063e-33 
4.00076e-21 9.75188e-23 0 0 4.00076e-21 0 0 0 
0 0 0 0 0 0 0 0 
3.57742e-21 4.35998e-23 0 0 3.57742e-21 0 0 0 
2.95079e-19 -3.09831e-19 -3.79464e-19 -3.79464e-19 -1.4754e-19 -1.80698e-19 -1.80698e-19 -9.823e-32 
2.42416e-21 0 0 -3.58481e-19 0 0 -2.42416e-21 0 
1.51421e-21 0 3.06758e-19 -3.06758e-19 0 1.07071e-21 -1.07071e-21 -7.40815e-35 
2.98424e-19 -3.13343e-19 3.83765e-19 3.83765e-19 -1.49212e-19 1.82747e-19 1.82747e-19 -9.99606e-32 
2.44146e-21 0 0 3.61039e-19 0 0 2.44146e-21 0 
2.40626e-21 0 -2.19491e-19 2.19491e-19 0 -1.70148e-21 1.70148e-21 1.48613e-34 
2.66478e-21 0 -1.5589e-20 0 0 -2.66478e-21 0 0 
2.66449e-21 0 1.55873e-20 0 0 2.66449e-21 0 0 
2.56977e-21 0 0 -1.46477e-20 0 0 -2.56977e-21 0 
2.64612e-21 0 0 1.50829e-20 0 0 2.64612e-21 0 
2.65245e-21 0 0 -1.5119e-20 0 0 -2.65245e-21 0 
2.58312e-21 0 0 1.47238e-20 0 0 2.58312e-21 0 
2.63673e-21 0 0 1.50294e-20 0 0 2.63673e-21 0 
2.56347e-21 0 0 -1.46118e-20 0 0 -2.56347e-21 0 
2.58805e-21 0 0 -1.47519e-20 0 0 -2.58805e-21 0 
2.5481e-21 0 0 1.45242e-20 0 0 2.5481e-21 0 
2.57686e-21 0 0 -1.46881e-20 0 0 -2.57686e-21 0 
2.56749e-21 0 0 1.46347e-20 0 0 2.56749e-21 0 
2.65971e-21 0 -1.51603e-20 0 0 -2.65971e-21 0 0 
2.60894e-21 0 1.4871e-20 0 0 2.60894e-21 0 0 
2.65092e-21 0 0 -1.51102e-20 0 0 -2.65092e-21 0 
2.67724e-21 0 0 1.52603e-20 0 0 2.67724e-21 0 
2.74295e-21 0 -1.56348e-20 0 0 -2.74295e-21 0 0 
2.74728e-21 0 1.56595e-20 0 0 2.74728e-21 0 0 
2.65924e-21 0 -1.51576e-20 0 0 -2.65924e-21 0 0 
2.67288e-21 0 1.52354e-20 0 0 2.67288e-21 0 0 
2.65165e-21 0 1.55122e-20 0 0 2.65165e-21 0 0 
2.68848e-21 0 -1.57276e-20 0 0 -2.68848e-21 0 0 
2.55499e-21 0 1.49467e-20 0 0 2.55499e-21 0 0 
2.57151e-21 0 -1.50433e-20 0 0 -2.57151e-21 0 0 
2.60258e-21 0 -1.48347e-20 0 0 -2.60258e-21 0 0 
2.61665e-21 0 1.49149e-20 0 0 2.61665e-21 0 0 
2.60264e-21 0 1.52254e-20 0 0 2.60264e-21 0 0 
2.64148e-21 0 -7.72634e-21 0 0 -2.64148e-21 0 0 
2.64079e-21 0 0 7.72431e-21 0 0 2.64079e-21 0 
2.64657e-21 0 0 -1.50855e-20 0 0 -2.64657e-21 0 
2.97863e-21 0 0 1.69782e-20 0 0 2.97863e-21 0 
2.6059e-21 0 0 1.52445e-20 0 0 2.6059e-21 0 
2.572e-21 0 0 -1.50462e-20 0 0 -2.572e-21 0 
2.54978e-21 0 -1.45337e-20 0 0 -2.54978e-21 0 0 
2.63291e-21 0 1.50076e-20 0 0 2.63291e-21 0 0 
2.70386e-21 0 -1.5412e-20 0 0 -2.70386e-21 0 0 
2.6239e-21 0 1.49562e-20 0 0 2.6239e-21 0 0 
2.67484e-21 0 0 1.52466e-20 0 0 2.67484e-21 0 
2.65333e-21 0 0 -1.5124e-20 0 0 -2.65333e-21 0 
2.58209e-21 0 -1.47179e-20 0 0 -2.58209e-21 0 0 
2.59722e-21 0 1.48041e-20 0 0 2.59722e-21 0 0 
2.69033e-21 0 0 1.53349e-20 0 0 2.69033e-21 0 
2.53606e-21 0 0 -1.44556e-20 0 0 -2.53606e-21 0 
2.60077e-21 0 -1.48244e-20 0 0 -2.60077e-21 0 0 
2.61409e-21 0 1.49003e-20 0 0 2.61409e-21 0 0 
2.56846e-21 0 0 1.46402e-20 0 0 2.56846e-21 0 
2.93217e-21 0 0 -1.67133e-20 0 0 -2.93217e-21 0 
2.6699e-21 0 1.52184e-20 0 0 2.6699e-21 0 0 
2.63176e-21 0 -1.5001e-20 0 0 -2.63176e-21 0 0 
2.59957e-21 0 1.48176e-20 0 0 2.59957e-21 0 0 
2.65155e-21 0 -1.51139e-20 0 0 -2.65155e-21 0 0 
2.56416e-21 0 0 -1.46157e-20 0 0 -2.56416e-21 0 
2.65448e-21 0 0 1.51305e-20 0 0 2.65448e-21 0 
2.63321e-21 0 0 1.50093e-20 0 0 2.63321e-21 0 
2.92538e-21 0 0 -1.66747e-20 0 0 -2.92538e-21 0 
2.6406e-21 0 0 1.50514e-20 0 0 2.6406e-21 0 
2.97968e-21 0 0 -1.69842e-20 0 0 -2.97968e-21 0 
2.61462e-21 0 -1.49033e-20 0 0 -2.61462e-21 0 0 
2.97471e-21 0 1.69559e-20 0 0 2.97471e-21 0 0 
2.65628e-21 0 -1.51408e-20 0 0 -2.65628e-21 0 0 
2.62774e-21 0 1.49781e-20 0 0 2.62774e-21 0 0 
2.94457e-21 0 1.72257e-20 0 0 2.94457e-21 0 0 
2.56119e-21 0 0 -1.49829e-20 0 0 -2.56119e-21 0 
2.6587e-21 0 -1.55534e-20 0 0 -2.6587e-21 0 0 
2.63091e-21 0 1.53908e-20 0 0 2.63091e-21 0 0 
2.57755e-21 0 1.50787e-20 0 0 2.57755e-21 0 0 
2.64088e-21 0 -1.54492e-20 0 0 -2.64088e-21 0 0 
2.60478e-21 0 0 -1.5238e-20 0 0 -2.60478e-21 0 
2.62045e-21 0 0 1.53296e-20 0 0 2.62045e-21 0 
2.58219e-21 0 0 1.51058e-20 0 0 2.58219e-21 0 
2.49926e-21 0 0 -1.46207e-20 0 0 -2.49926e-21 0 
2.95515e-21 0 -1.68444e-20 0 0 -2.95515e-21 0 0 
2.52176e-21 0 1.4374e-20 0 0 2.52176e-21 0 0 
2.56124e-21 0 0 -1.49833e-20 0 0 -2.56124e-21 0 
2.66475e-21 0 0 1.55888e-20 0 0 2.66475e-21 0 
2.59066e-21 0 -7.57768e-21 0 0 -2.59066e-21 0 0 
2.97818e-21 0 -1.74223e-20 0 0 -2.97818e-21 0 0 
3.01552e-21 0 1.76408e-20 0 0 3.01552e-21 0 0 
2.95158e-21 0 -1.72667e-20 0 0 -2.95158e-21 0 0 
2.98431e-21 0 1.74582e-20 0 0 2.98431e-21 0 0 
2.92882e-21 0 -1.66943e-20 0 0 -2.92882e-21 0 0 
2.65546e-21 0 1.51361e-20 0 0 2.65546e-21 0 0 
2.93814e-21 0 0 -1.71881e-20 0 0 -2.93814e-21 0 
2.94544e-21 0 0 1.72308e-20 0 0 2.94544e-21 0 
2.65732e-21 0 1.51467e-20 0 0 2.65732e-21 0 0 
3.0755e-21 0 -1.75304e-20 0 0 -3.0755e-21 0 0 
3.01346e-21 0 0 1.71767e-20 0 0 3.01346e-21 0 
2.97184e-21 0 0 -1.69395e-20 0 0 -2.97184e-21 0 
3.01195e-21 0 0 1.76199e-20 0 0 3.01195e-21 0 
2.59313e-21 0 7.58492e-21 0 0 2.59313e-21 0 0 
2.62432e-21 0 -1.49586e-20 0 0 -2.62432e-21 0 0 
3.0495e-21 0 1.73822e-20 0 0 3.0495e-21 0 0 
2.97949e-21 0 1.69831e-20 0 0 2.97949e-21 0 0 
2.90558e-21 0 -1.65618e-20 0 0 -2.90558e-21 0 0 
2.92564e-21 0 1.66762e-20 0 0 2.92564e-21 0 0 
2.97371e-21 0 -1.69502e-20 0 0 -2.97371e-21 0 0 
2.92385e-21 0 0 -1.66659e-20 0 0 -2.92385e-21 0 
2.94875e-21 0 0 1.68079e-20 0 0 2.94875e-21 0 
2.59206e-21 0 1.47747e-20 0 0 2.59206e-21 0 0 
2.98118e-21 0 -1.69927e-20 0 0 -2.98118e-21 0 0 
2.98088e-21 0 0 -1.6991e-20 0 0 -2.98088e-21 0 
2.95186e-21 0 0 1.68256e-20 0 0 2.95186e-21 0 
2.89574e-21 0 1.65057e-20 0 0 2.89574e-21 0 0 
2.63118e-21 0 -1.49977e-20 0 0 -2.63118e-21 0 0 
2.94363e-21 0 -1.67787e-20 0 0 -2.94363e-21 0 0 
2.89375e-21 0 1.64944e-20 0 0 2.89375e-21 0 0 
2.95606e-21 0 0 -1.68496e-20 0 0 -2.95606e-21 0 
2.87165e-21 0 0 1.63684e-20 0 0 2.87165e-21 0 
2.94454e-21 0 0 -1.67839e-20 0 0 -2.94454e-21 0 
3.0117e-21 0 0 1.71667e-20 0 0 3.0117e-21 0 
2.95633e-21 0 0 1.68511e-20 0 0 2.95633e-21 0 
2.89943e-21 0 0 -1.65267e-20 0 0 -2.89943e-21 0 
3.03377e-21 0 -1.72925e-20 0 0 -3.03377e-21 0 0 
2.97374e-21 0 1.69503e-20 0 0 2.97374e-21 0 0 
2.92015e-21 0 0 1.66448e-20 0 0 2.92015e-21 0 
3.01062e-21 0 0 -1.71605e-20 0 0 -3.01062e-21 0 
2.97053e-21 0 0 -1.6932e-20 0 0 -2.97053e-21 0 
2.60113e-21 0 0 1.48264e-20 0 0 2.60113e-21 0 
2.98765e-21 0 1.70296e-20 0 0 2.98765e-21 0 0 
3.00007e-21 0 -1.71004e-20 0 0 -3.00007e-21 0 0 
2.95999e-21 0 -1.68719e-20 0 0 -2.95999e-21 0 0 
2.96073e-21 0 1.68762e-20 0 0 2.96073e-21 0 0 
2.95152e-21 0 0 1.68237e-20 0 0 2.95152e-21 0 
2.96003e-21 0 0 -1.68721e-20 0 0 -2.96003e-21 0 
2.96081e-21 0 1.68766e-20 0 0 2.96081e-21 0 0 
3.01917e-21 0 -1.72093e-20 0 0 -3.01917e-21 0 0 
2.95816e-21 0 0 1.68615e-20 0 0 2.95816e-21 0 
2.95609e-21 0 0 -1.68497e-20 0 0 -2.95609e-21 0 
2.32798e-21 -3.15526e-24 0 -1.65869e-21 -4.42842e-24 0 -2.32798e-21 1.66125e-34 
8.64618e-21 -1.05996e-22 -3.56157e-23 -1.59291e-21 -5.73927e-22 -1.92845e-22 -8.62495e-21 5.43132e-36 
4.58871e-21 -3.28896e-23 -1.44683e-23 -8.48672e-22 -1.77672e-22 -7.8159e-23 -4.5846e-21 6.1774e-34 
9.53269e-21 -1.17394e-22 -7.85359e-23 -1.72509e-21 -6.46544e-22 -4.32535e-22 -9.5009e-21 -1.03861e-33 
2.49063e-21 -2.96415e-25 -8.90705e-28 -6.22658e-22 -1.18566e-24 -3.56282e-27 -2.49063e-21 -4.25309e-34 
2.24185e-21 -3.17612e-24 -1.66559e-23 -5.38485e-22 -1.32164e-23 -6.93083e-23 -2.24074e-21 -6.01062e-34 
2.73647e-21 -4.83744e-24 -1.53064e-23 -4.41124e-22 -2.99888e-23 -9.48893e-23 -2.73466e-21 1.36806e-34 
2.88569e-21 -9.41216e-24 -2.26986e-23 -5.21425e-22 -5.20314e-23 -1.2548e-22 -2.88249e-21 1.82991e-34 
5.2504e-21 -3.70804e-23 -1.65546e-23 -9.71051e-22 -2.00316e-22 -8.94315e-23 -5.24581e-21 8.88697e-34 
3.55442e-21 -1.98707e-23 -3.36222e-23 -6.39243e-22 -1.10283e-22 -1.86604e-22 -3.54781e-21 -6.17955e-34 
5.22258e-21 -4.99144e-23 -3.81658e-23 -9.49094e-22 -2.74064e-22 -2.09556e-22 -5.21117e-21 1.59721e-34 
1.83126e-21 -2.85205e-24 -6.93679e-24 -5.98885e-22 -8.72023e-24 -2.12095e-23 -1.83111e-21 -5.09118e-34 
3.32585e-21 -9.64253e-24 -6.20131e-24 -5.48249e-22 -5.84818e-23 -3.76109e-23 -3.32512e-21 2.43349e-34 
3.39092e-21 -4.6611e-24 -1.61012e-23 -4.063e-22 -3.88679e-23 -1.34264e-22 -3.38804e-21 -9.20098e-35 
2.4217e-21 -4.20204e-24 -6.83436e-24 -3.95489e-22 -2.57251e-23 -4.18403e-23 -2.4212e-21 -2.45638e-34 
8.92439e-22 -2.83059e-25 0 -1.67333e-23 -1.50943e-23 0 -8.92312e-22 9.62826e-34 
3.38512e-21 -1.09397e-23 1.77515e-23 -6.19349e-22 -5.97581e-23 9.69679e-23 -3.3832e-21 -4.87665e-34 
2.82557e-21 -1.03543e-23 0 -1.00661e-21 -2.90632e-23 0 -2.82542e-21 2.87185e-34 
2.96633e-21 -3.7809e-25 9.51894e-24 -7.14588e-22 -1.56935e-24 3.95107e-23 -2.96607e-21 3.33085e-35 
2.32392e-21 -3.2924e-24 1.72657e-23 -5.582e-22 -1.37003e-23 7.18458e-23 -2.32277e-21 3.88186e-34 
6.05252e-21 -5.79146e-23 4.98642e-23 -1.0953e-21 -3.19255e-22 2.74877e-22 -6.03784e-21 2.70947e-34 
4.48645e-21 -3.17262e-23 1.63934e-23 -8.28264e-22 -1.71691e-22 8.87153e-23 -4.48228e-21 -3.25703e-35 
5.17166e-21 -4.4749e-23 5.66909e-23 -9.24919e-22 -2.49453e-22 3.16024e-22 -5.15597e-21 4.92072e-34 
3.4007e-21 -1.70071e-23 2.14453e-23 -6.20275e-22 -9.31522e-23 1.17461e-22 -3.39739e-21 -3.62614e-34 
2.56075e-21 -4.98451e-24 1.43235e-23 -4.12796e-22 -3.09002e-23 8.87947e-23 -2.55902e-21 1.86551e-34 
2.60281e-21 -4.50867e-24 4.85314e-24 -4.29059e-22 -2.73477e-23 2.94372e-23 -2.6025e-21 2.31204e-34 
3.6172e-21 -3.38116e-23 0 -1.28863e-21 -9.48771e-23 0 -3.61596e-21 5.65758e-34 
2.228e-21 -7.56198e-25 0 -1.58745e-21 -1.06133e-24 0 -2.228e-21 9.43255e-35 
2.67974e-21 -4.41302e-24 1.57407e-23 -6.51781e-22 -1.81381e-23 6.46961e-23 -2.6789e-21 4.5351e-35 
7.90371e-21 -9.40445e-23 0 -1.4449e-21 -5.13345e-22 0 -7.88702e-21 -9.19866e-34 
2.62669e-21 -3.56012e-24 1.87152e-21 0 -4.99665e-24 2.62669e-21 0 -1.29521e-34 
9.15882e-21 -1.12281e-22 1.68735e-21 -3.77275e-23 -6.07956e-22 9.13634e-21 -2.04279e-22 -3.80192e-35 
4.00324e-21 -2.86933e-23 7.40392e-22 -1.26223e-23 -1.55003e-22 3.99966e-21 -6.81869e-23 -2.16751e-34 
1.07773e-20 -1.3272e-22 1.95031e-21 -8.87894e-23 -7.30955e-22 1.07413e-20 -4.89006e-22 -3.36994e-34 
2.13194e-21 -2.53726e-25 5.32984e-22 -7.62429e-28 -1.0149e-24 2.13194e-21 -3.04971e-27 -4.81482e-35 
2.50537e-21 -3.54946e-24 6.01782e-22 -1.86137e-23 -1.477e-23 2.50413e-21 -7.74552e-23 3.50619e-34 
2.55126e-21 -4.51003e-24 4.11267e-22 -1.42704e-23 -2.79591e-23 2.54957e-21 -8.84668e-23 2.48738e-35 
3.57677e-21 -1.16662e-23 6.46298e-22 -2.81346e-23 -6.44921e-23 3.5728e-21 -1.55531e-22 -5.87789e-34 
4.75648e-21 -3.35921e-23 8.79701e-22 -1.49973e-23 -1.81472e-22 4.75232e-21 -8.10184e-23 2.22174e-34 
4.21369e-21 -2.35563e-23 7.57809e-22 -3.98584e-23 -1.30738e-22 4.20585e-21 -2.21215e-22 -3.11761e-34 
5.7725e-21 -5.51703e-23 1.04903e-21 -4.21846e-23 -3.02922e-22 5.75989e-21 -2.31622e-22 1.81752e-34 
1.96805e-21 -3.06509e-24 6.4362e-22 -7.45494e-24 -9.3716e-24 1.96789e-21 -2.27937e-23 3.80305e-34 
2.90151e-21 -8.41228e-24 4.783e-22 -5.41011e-24 -5.10203e-23 2.90088e-21 -3.28122e-23 -3.04186e-35 
2.66633e-21 -3.6651e-24 3.1948e-22 -1.26606e-23 -3.05624e-23 2.66407e-21 -1.05574e-22 -2.593e-34 
2.48341e-21 -4.30912e-24 4.05567e-22 -7.00852e-24 -2.63806e-23 2.4829e-21 -4.29065e-23 3.07048e-34 
5.61911e-22 -1.78224e-25 1.05359e-23 0 -9.50391e-24 5.61831e-22 0 0 
2.91085e-21 -9.40697e-24 5.32575e-22 1.52645e-23 -5.13857e-23 2.9092e-21 8.33823e-23 -2.95887e-34 
3.01717e-21 -1.10564e-23 1.07487e-21 0 -3.1034e-23 3.01701e-21 0 1.3233e-34 
2.05605e-21 -2.62065e-25 4.95301e-22 6.59785e-24 -1.08776e-24 2.05587e-21 2.7386e-23 3.33085e-35 
2.67546e-21 -3.79044e-24 6.42638e-22 1.98775e-23 -1.57727e-23 2.67414e-21 8.27138e-23 -7.34631e-34 
5.8677e-21 -5.61461e-23 1.06185e-21 4.83415e-23 -3.09506e-22 5.85347e-21 2.66483e-22 4.92129e-34 
4.12904e-21 -2.91988e-23 7.62281e-22 1.50874e-23 -1.58014e-22 4.12521e-21 8.1648e-23 6.94832e-34 
5.07766e-21 -4.39355e-23 9.08106e-22 5.56604e-23 -2.44919e-22 5.06225e-21 3.10279e-22 3.07545e-34 
4.09506e-21 -2.04797e-23 7.46924e-22 2.5824e-23 -1.12172e-22 4.09108e-21 1.41444e-22 8.24124e-35 
3.301e-21 -6.42541e-24 5.32125e-22 1.84641e-23 -3.98326e-23 3.29877e-21 1.14463e-22 3.73103e-34 
3.31143e-21 -5.73617e-24 5.45872e-22 6.17443e-24 -3.47932e-23 3.31103e-21 3.74515e-23 -1.46024e-34 
4.62063e-21 -4.3191e-23 1.6461e-21 0 -1.21196e-22 4.61904e-21 0 4.25023e-34 
2.29947e-21 -7.80456e-25 1.63837e-21 0 -1.09538e-24 2.29947e-21 0 1.12627e-35 
2.52855e-21 -4.16403e-24 6.15007e-22 1.48526e-23 -1.71147e-23 2.52776e-21 6.10459e-23 -2.47369e-34 
8.49785e-21 -1.01114e-22 1.55351e-21 0 -5.51934e-22 8.4799e-21 0 -6.51572e-34 
2.35435e-21 -3.191e-24 0 1.67747e-21 -4.47858e-24 0 2.35435e-21 -2.33702e-34 
7.95339e-21 -9.75031e-23 3.2762e-23 1.46527e-21 -5.2794e-22 1.77393e-22 7.93386e-21 -5.97445e-34 
5.533e-21 -3.96578e-23 1.74457e-23 1.02332e-21 -2.14235e-22 9.42431e-23 5.52805e-21 -4.71433e-34 
9.77136e-21 -1.20333e-22 8.05022e-23 1.76828e-21 -6.62731e-22 4.43365e-22 9.73877e-21 1.27063e-34 
1.99849e-21 -2.37844e-25 7.14705e-28 4.99623e-22 -9.51378e-25 2.85882e-27 1.99849e-21 2.52778e-34 
2.61374e-21 -3.703e-24 1.94189e-23 6.27812e-22 -1.54089e-23 8.08056e-23 2.61244e-21 4.67492e-34 
2.7578e-21 -4.87515e-24 1.54257e-23 4.44562e-22 -3.02226e-23 9.56288e-23 2.75598e-21 -3.42015e-34 
2.87279e-21 -9.3701e-24 2.25972e-23 5.19095e-22 -5.17989e-23 1.2492e-22 2.86961e-21 -3.27165e-34 
4.83609e-21 -3.41544e-23 1.52483e-23 8.94425e-22 -1.84509e-22 8.23745e-23 4.83186e-21 3.57647e-34 
3.76433e-21 -2.10441e-23 3.56077e-23 6.76993e-22 -1.16795e-22 1.97624e-22 3.75732e-21 -1.02992e-33 
5.83904e-21 -5.58062e-23 4.26709e-23 1.06112e-21 -3.06414e-22 2.34292e-22 5.82628e-21 -6.38885e-34 
1.94214e-21 -3.02473e-24 7.3568e-24 6.35147e-22 -9.24822e-24 2.24937e-23 1.94198e-21 2.91363e-34 
2.56199e-21 -7.42789e-24 4.77703e-24 4.2233e-22 -4.505e-23 2.89726e-23 2.56143e-21 -3.10269e-34 
3.14051e-21 -4.31689e-24 1.49121e-23 3.76295e-22 -3.59975e-23 1.24349e-22 3.13784e-21 -1.17103e-34 
3.45988e-21 -6.00344e-24 9.76423e-24 5.65034e-22 -3.67534e-23 5.97772e-23 3.45917e-21 9.21144e-34 
2.36368e-21 -7.49698e-25 0 4.4319e-23 -3.99781e-23 0 2.36334e-21 -3.20942e-34 
3.42594e-21 -1.10716e-23 -1.79656e-23 6.26817e-22 -6.04786e-23 -9.81371e-23 3.424e-21 -4.4383e-34 
2.92609e-21 -1.07227e-23 0 1.04242e-21 -3.00971e-23 0 2.92593e-21 -3.35049e-34 
2.49997e-21 -3.18647e-25 -8.02239e-24 6.02241e-22 -1.32262e-24 -3.32988e-23 2.49975e-21 -1.70706e-34 
2.50156e-21 -3.54407e-24 -1.85854e-23 6.00867e-22 -1.47475e-23 -7.73375e-23 2.50032e-21 -2.29572e-34 
6.27419e-21 -6.00357e-23 -5.16904e-23 1.13541e-21 -3.30948e-22 -2.84944e-22 6.25897e-21 4.42363e-35 
4.61567e-21 -3.264e-23 -1.68655e-23 8.52119e-22 -1.76636e-22 -9.12705e-23 4.61138e-21 -3.20274e-34 
5.0796e-21 -4.39523e-23 -5.56817e-23 9.08454e-22 -2.45013e-22 -3.10398e-22 5.06418e-21 1.26373e-33 
3.70571e-21 -1.85325e-23 -2.33687e-23 6.75907e-22 -1.01507e-22 -1.27996e-22 3.7021e-21 -6.81275e-34 
2.86746e-21 -5.58153e-24 -1.60391e-23 4.62238e-22 -3.46012e-23 -9.943e-23 2.86553e-21 1.5546e-34 
2.85205e-21 -4.94043e-24 -5.31789e-24 4.70147e-22 -2.99666e-23 -3.22561e-23 2.85171e-21 -1.27771e-34 
4.02405e-21 -3.76146e-23 0 1.43357e-21 -1.05548e-22 0 4.02266e-21 1.01893e-33 
2.43563e-21 -8.2667e-25 0 1.73539e-21 -1.16024e-24 0 2.43563e-21 -3.66039e-35 
2.8755e-21 -4.73539e-24 -1.68905e-23 6.99395e-22 -1.9463e-23 -6.94222e-23 2.8746e-21 4.12282e-35 
8.5991e-21 -1.02319e-22 0 1.57202e-21 -5.58511e-22 0 8.58095e-21 -8.76063e-35 
2.46411e-21 -3.33976e-24 -1.75568e-21 0 -4.68737e-24 -2.4641e-21 0 7.32077e-35 
9.46014e-21 -1.15975e-22 -1.74287e-21 3.89686e-23 -6.27957e-22 -9.43691e-21 2.10999e-22 -5.43132e-35 
3.84571e-21 -2.75641e-23 -7.11256e-22 1.21256e-23 -1.48904e-22 -3.84226e-21 6.55036e-23 2.76357e-34 
1.02488e-20 -1.26212e-22 -1.85467e-21 8.44354e-23 -6.95111e-22 -1.02146e-20 4.65027e-22 -4.53009e-34 
2.02856e-21 -2.41423e-25 -5.0714e-22 7.25459e-28 -9.65693e-25 -2.02856e-21 2.90184e-27 1.72531e-34 
2.13587e-21 -3.02598e-24 -5.1303e-22 1.58685e-23 -1.25917e-23 -2.13481e-21 6.60319e-23 8.34808e-36 
2.64207e-21 -4.67056e-24 -4.25906e-22 1.47784e-23 -2.89543e-23 -2.64032e-21 9.16158e-23 -9.94954e-35 
2.92881e-21 -9.5528e-24 -5.29216e-22 2.30378e-23 -5.28088e-23 -2.92556e-21 1.27355e-22 2.82804e-34 
4.69646e-21 -3.31683e-23 -8.68601e-22 1.48081e-23 -1.79182e-22 -4.69236e-21 7.99961e-23 -2.70944e-35 
4.074e-21 -2.27753e-23 -7.32686e-22 3.8537e-23 -1.26403e-22 -4.06642e-21 2.13881e-22 -3.00627e-34 
5.53223e-21 -5.28739e-23 -1.00537e-21 4.04287e-23 -2.90313e-22 -5.52014e-21 2.21981e-22 -9.36298e-35 
2.13926e-21 -3.33174e-24 -6.99614e-22 8.10351e-24 -1.01869e-23 -2.13909e-21 2.47767e-23 -1.16545e-34 
2.90718e-21 -8.4287e-24 -4.79233e-22 5.42067e-24 -5.11199e-23 -2.90654e-21 3.28763e-23 1.09507e-34 
3.18879e-21 -4.38325e-24 -3.8208e-22 1.51414e-23 -3.6551e-23 -3.18608e-21 1.2626e-22 -4.85142e-34 
2.43184e-21 -4.21962e-24 -3.97144e-22 6.86296e-24 -2.58328e-23 -2.43134e-21 4.20154e-23 -1.84229e-35 
4.76677e-22 -1.5119e-25 -8.9377e-24 0 -8.06229e-24 -4.76608e-22 0 6.41884e-34 
2.75889e-21 -8.91587e-24 -5.04772e-22 -1.44676e-23 -4.87031e-23 -2.75732e-21 -7.90293e-23 -3.39722e-34 
2.67286e-21 -9.79471e-24 -9.52206e-22 0 -2.74925e-23 -2.67272e-21 0 1.37961e-34 
2.79105e-21 -3.55749e-25 -6.72363e-22 -8.95647e-24 -1.47662e-24 -2.7908e-21 -3.7176e-23 -1.45725e-34 
2.28178e-21 -3.2327e-24 -5.48077e-22 -1.69526e-23 -1.34519e-23 -2.28065e-21 -7.05429e-23 8.34808e-36 
7.77477e-21 -7.43942e-23 -1.40696e-21 -6.40531e-23 -4.10099e-22 -7.75591e-21 -3.53094e-22 9.51081e-34 
4.17661e-21 -2.95351e-23 -7.71062e-22 -1.52612e-23 -1.59834e-22 -4.17273e-21 -8.25885e-23 1.11282e-33 
4.6949e-21 -4.06237e-23 -8.39653e-22 -5.14647e-23 -2.26457e-22 -4.68065e-21 -2.8689e-22 1.15749e-33 
4.16987e-21 -2.08538e-23 -7.60568e-22 -2.62958e-23 -1.14221e-22 -4.16582e-21 -1.44028e-22 -1.15377e-34 
3.36354e-21 -6.54716e-24 -5.42208e-22 -1.88139e-23 -4.05874e-23 -3.36128e-21 -1.16632e-22 9.82504e-34 
2.57226e-21 -4.45576e-24 -4.24024e-22 -4.79619e-24 -2.70268e-23 -2.57196e-21 -2.90917e-23 -1.09518e-34 
4.33926e-21 -4.0561e-23 -1.54586e-21 0 -1.13816e-22 -4.33776e-21 0 7.29012e-34 
2.26554e-21 -7.68939e-25 -1.6142e-21 0 -1.07921e-24 -2.26554e-21 0 -1.60494e-34 
2.19e-21 -3.6065e-24 -5.32662e-22 -1.28639e-23 -1.48232e-23 -2.18931e-21 -5.28723e-23 -1.77281e-34 
8.76944e-21 -1.04346e-22 -1.60316e-21 0 -5.69574e-22 -8.75092e-21 0 -6.40621e-34 
1.10853e-20 0 -9.25993e-21 -9.25993e-21 0 -7.83851e-21 -7.83851e-21 5.71367e-33 
0 0 0 0 0 0 0 0 
0 0 0 0 0 0 0 0 
0 0 0 0 0 0 0 0 
0 0 0 0 0 0 0 0 
0 0 0 0 0 0 0 0 
0 0 0 0 0 0 0 0 
0 0 0 0 0 0 0 0 
0 0 0 0 0 0 0 0 
0 0 0 0 0 0 0 0 
0 0 0 0 0 0 0 0 
0 0 0 0 0 0 0 0 
0 0 0 0 0 0 0 0 
0 0 0 0 0 0 0 0 
0 0 0 0 0 0 0 0 
0 0 0 0 0 0 0 0 
0 0 0 0 0 0 0 0 
0 0 0 0 0 0 0 0 
0 0 0 0 0 0 0 0 
0 0 0 0 0 0 0 0 
0 0 0 0 0 0 0 0 
0 0 0 0 0 0 0 0 
0 0 0 0 0 0 0 0 
0 0 0 0 0 0 0 0 
0 0 0 0 0 0 0 0 
0 0 0 0 0 0 0 0 
0 0 0 0 0 0 0 0 
0 0 0 0 0 0 0 0 
0 0 0 0 0 0 0 0 
0 0 0 0 0 0 0 0 
0 0 0 0 0 0 0 0 
0 0 0 0 0 0 0 0 
0 0 0 0 0 0 0 0 
0 0 0 0 0 0 0 0 
0 0 0 0 0 0 0 0 
0 0 0 0 0 0 0 0 
0 0 0 0 0 0 0 0 
0 0 0 0 0 0 0 0 
0 0 0 0 0 0 0 0 
0 0 0 0 0 0 0 0 
0 0 0 0 0 0 0 0 
0 0 0 0 0 0 0 0 
0 0 0 0 0 0 0 0 
0 0 0 0 0 0 0 0 
0 0 0 0 0 0 0 0 
0 0 0 0 0 0 0 0 
0 0 0 0 0 0 0 0 
1.08613e-20 0 9.07278e-21 9.07278e-21 0 7.68008e-21 7.68008e-21 5.71622e-33 
2.69839e-20 -1.1042e-21 -1.67336e-22 -6.23143e-21 -4.70651e-21 -7.13248e-22 -2.65607e-20 -1.23435e-32 
3.2615e-20 -1.98095e-21 -7.23361e-22 -1.09851e-20 -5.77602e-21 -2.10917e-21 -3.20301e-20 -8.95572e-33 
2.53457e-20 -9.27511e-22 -1.63113e-22 -5.18734e-21 -4.45899e-21 -7.8416e-22 -2.4938e-20 -8.68018e-34 
5.2417e-20 -1.57444e-21 -1.25629e-21 -6.22441e-21 -1.26146e-20 -1.00656e-20 -4.98708e-20 -5.44901e-33 
7.10857e-20 -1.17843e-21 -6.96812e-22 -4.73881e-21 -1.69828e-20 -1.00421e-20 -6.82929e-20 -4.17776e-33 
6.69443e-20 -1.17716e-21 -4.66079e-22 -4.8387e-21 -1.57558e-20 -6.23828e-21 -6.4764e-20 1.83935e-33 
4.22742e-20 -6.92314e-22 -2.53289e-22 -3.12214e-21 -9.12313e-21 -3.33778e-21 -4.11428e-20 5.84255e-33 
2.5017e-20 -7.85627e-22 -2.1991e-22 -4.31547e-21 -4.47505e-21 -1.25264e-21 -2.45816e-20 9.25626e-34 
2.78686e-20 -9.70738e-22 -2.59873e-22 -5.22848e-21 -5.08119e-21 -1.36027e-21 -2.73677e-20 -2.08446e-33 
2.66032e-20 -8.55084e-22 -3.77162e-22 -4.54561e-21 -4.90186e-21 -2.16212e-21 -2.60582e-20 1.30532e-33 
2.98694e-20 -9.95918e-22 -5.02889e-22 -5.0844e-21 -5.71477e-21 -2.88568e-21 -2.91753e-20 9.78506e-35 
7.32139e-20 -1.69541e-21 -1.49456e-21 -8.42489e-21 -1.42302e-20 -1.25444e-20 -7.07136e-20 2.31616e-32 
2.78379e-20 -1.04481e-21 -6.03909e-22 -5.22178e-21 -5.42697e-21 -3.13683e-21 -2.7123e-20 -3.02195e-33 
3.7237e-20 -8.11051e-22 -2.83115e-22 -3.99362e-21 -7.39322e-21 -2.58076e-21 -3.64043e-20 7.80878e-33 
3.2743e-20 -9.05958e-22 -4.88757e-22 -4.26887e-21 -6.75524e-21 -3.6444e-21 -3.18307e-20 -1.4959e-34 
5.11319e-20 -8.59338e-22 -4.0743e-22 -3.50902e-21 -1.20859e-20 -5.73016e-21 -4.93515e-20 -1.06513e-32 
3.88695e-20 -6.04972e-22 -2.66005e-22 -2.71463e-21 -8.4165e-21 -3.70072e-21 -3.77665e-20 -9.93609e-33 
3.80259e-20 -1.17052e-21 -5.20751e-22 -5.31434e-21 -8.14217e-21 -3.62237e-21 -3.69669e-20 2.02349e-34 
3.59094e-20 -9.79175e-22 -6.65504e-22 -4.41906e-21 -7.68576e-21 -5.22369e-21 -3.46861e-20 2.22819e-33 
4.82236e-20 -1.12176e-21 -1.07246e-21 -5.16547e-21 -1.00296e-20 -9.58883e-21 -4.61842e-20 1.01973e-32 
3.79151e-20 -1.00424e-21 -8.58721e-22 -4.30694e-21 -8.45181e-21 -7.22709e-21 -3.62477e-20 4.89642e-34 
3.97149e-20 -1.19637e-21 -7.12017e-22 -5.17034e-21 -8.87363e-21 -5.28111e-21 -3.8349e-20 5.43121e-34 
5.3388e-20 -9.05818e-22 -4.36438e-22 -3.73578e-21 -1.25002e-20 -6.02278e-21 -5.15533e-20 5.23246e-33 
4.93768e-20 -1.54669e-21 -9.64158e-22 -6.36773e-21 -1.15304e-20 -7.18767e-21 -4.74706e-20 7.5078e-33 
4.13037e-20 -1.13527e-21 -1.01889e-21 -4.62797e-21 -9.62278e-21 -8.6363e-21 -3.92277e-20 4.49777e-33 