ITEM: TIMESTEP
170
ITEM: NUMBER OF SURFS
6916
ITEM: BOX BOUNDS oo rr rr
-0.35 0.35
-0.25 0.25
-0.25 0.25
ITEM: SURFS f_save[1] f_save[2] f_save[3] f_save[4] f_save[5] f_save[6] f_save[7] f_save[8] 
9.32769 -6.99868e-05 0 0 -9.32769 0 0 0 
4.44149 -3.33251e-05 0 0 -4.44149 0 0 0 
0 0 0 0 0 0 0 0 
0.981541 -1.51758e-05 0.000294585 4.20696e-06 0 0.981541 0 130.69 
0.814166 -5.13496e-05 0.000244334 -1.27245e-05 0 0.814166 0 395.777 
0.880148 -3.18704e-05 -0.000264155 3.673e-06 0 -0.880148 0 220.987 
1.0681 -3.51531e-05 -0.000320539 -4.1643e-06 0 -1.0681 0 233.102 
0 0 0 0 0 0 0 0 
0 0 0 0 0 0 0 0 
0 0 0 0 0 0 0 0 
0.274114 -4.96174e-05 1.43972e-06 0.000160357 0 0 0.274114 165.834 
0.312597 -7.36403e-06 8.31417e-08 0.000182869 0 0 0.312597 37.3329 
0 0 0 0 0 0 0 0 
8.25098 -2.01118e-05 0 0 -8.25098 0 0 0 
0 0 0 0 0 0 0 0 
82.2551 -1.02819e-05 -1.79105e-06 3.07916e-07 -82.2551 0 0 111418 
0 0 0 0 0 0 0 0 
0 0 0 0 0 0 0 0 
8.79191 -2.14303e-05 0 0 -8.79191 0 0 0 
25.3196 -6.17165e-05 -1.29302e-07 -7.31234e-07 -25.3196 0 0 6271.78 
0 0 0 0 0 0 0 0 
0 0 0 0 0 0 0 0 
7.71806 -1.83304e-05 0 0 -7.71806 0 0 0 
5.49015 -1.30391e-05 0 0 -5.49015 0 0 0 
0 0 0 0 0 0 0 0 
0 0 0 0 0 0 0 0 
0 0 0 0 0 0 0 0 
0 0 0 0 0 0 0 0 
11.3137 -2.75772e-05 0 0 -11.3137 0 0 0 
20.6402 -5.03107e-05 0 0 -20.6402 0 0 0 
0 0 0 0 0 0 0 0 
142.426 -1.78033e-05 0 0 -142.426 0 0 0 
9.83287 -2.33531e-05 1.29491e-06 -4.24181e-07 -9.83287 0 0 7822.54 
15.4321 -3.66513e-05 1.64348e-08 -1.4016e-06 -15.4321 0 0 5622.48 
24.5855 -5.83905e-05 -1.31547e-06 -1.90619e-06 -24.5855 0 0 12045.7 
0 0 0 0 0 0 0 0 
9.72545 -2.3098e-05 8.3411e-07 7.65711e-07 -9.72545 0 0 6579.68 
0 0 0 0 0 0 0 0 
7.55986 -1.79546e-05 0 0 -7.55986 0 0 0 
24.2829 -5.76718e-05 0 0 -24.2829 0 0 0 
13.9649 -3.31669e-05 0 0 -13.9649 0 0 0 
28.8477 -6.85134e-05 0 0 -28.8477 0 0 0 
21.6142 -5.13337e-05 -1.06675e-06 -1.70248e-06 -21.6142 0 0 7341.16 
24.271 -5.76437e-05 3.79617e-06 1.36795e-06 -24.271 0 0 3563.96 
4.37613 -1.03933e-05 -1.14282e-06 1.42782e-06 -4.37613 0 0 6913.89 
0 0 0 0 0 0 0 0 
17.1459 -4.17931e-05 -6.26571e-07 1.38816e-07 -17.1459 0 0 6419.21 
2.63647 -6.42637e-06 -8.24953e-07 -3.81086e-07 -2.63647 0 0 4725.48 
15.9361 -3.88444e-05 0 0 -15.9361 0 0 0 
10.1156 -2.46569e-05 0 0 -10.1156 0 0 0 
16.3997 -3.99742e-05 0 0 -16.3997 0 0 0 
9.37339 -2.28477e-05 1.27916e-07 -1.98056e-07 -9.37339 0 0 8125.45 
15.7631 -3.74372e-05 0 0 -15.7631 0 0 0 
0 0 0 0 0 0 0 0 
15.4046 -3.65862e-05 0 0 -15.4046 0 0 0 
0 0 0 0 0 0 0 0 
13.6022 -3.23053e-05 0 0 -13.6022 0 0 0 
0 0 0 0 0 0 0 0 
8.63378 -2.05052e-05 0 0 -8.63378 0 0 0 
25.7308 -6.11106e-05 0 0 -25.7308 0 0 0 
7.36489 -1.7952e-05 0 0 -7.36489 0 0 0 
7.07587 -1.72475e-05 0 0 -7.07587 0 0 0 
14.5819 -3.55435e-05 0 0 -14.5819 0 0 0 
16.4476 -4.00911e-05 0 0 -16.4476 0 0 0 
0 0 0 0 0 0 0 0 
0 0 0 0 0 0 0 0 
7.28959 -1.77685e-05 0 0 -7.28959 0 0 0 
3.27826 -7.99079e-06 6.78744e-07 6.29129e-07 -3.27826 0 0 4497.82 
16.7077 -3.96809e-05 0 0 -16.7077 0 0 0 
7.99933 -1.89985e-05 -1.5159e-06 -3.2481e-06 -7.99933 0 0 12022.2 
10.788 -2.62959e-05 0 0 -10.788 0 0 0 
5.23967 -1.27718e-05 0 0 -5.23967 0 0 0 
0 0 0 0 0 0 0 0 
8.35049 -1.98324e-05 0 0 -8.35049 0 0 0 
15.7155 -3.83065e-05 0 0 -15.7155 0 0 0 
7.99796 -1.9495e-05 -2.1301e-06 5.72771e-07 -7.99796 0 0 12083.6 
17.4493 -4.25327e-05 8.89978e-07 1.34956e-06 -17.4493 0 0 13824.8 
7.32781 -1.78616e-05 0 0 -7.32781 0 0 0 
3.23955 -7.69394e-06 0 0 -3.23955 0 0 0 
23.8264 -5.65878e-05 0 0 -23.8264 0 0 0 
0 0 0 0 0 0 0 0 
13.3998 -3.18246e-05 0 0 -13.3998 0 0 0 
16.2079 -3.84939e-05 0 0 -16.2079 0 0 0 
5.76419 -1.369e-05 0 0 -5.76419 0 0 0 
7.51482 -1.78477e-05 0 0 -7.51482 0 0 0 
7.99365 -1.89849e-05 0 0 -7.99365 0 0 0 
15.224 -3.6157e-05 0 0 -15.224 0 0 0 
8.2287 -1.95431e-05 0 0 -8.2287 0 0 0 
0 0 0 0 0 0 0 0 
14.9552 -3.64534e-05 0 0 -14.9552 0 0 0 
2.98671 -7.28014e-06 0 0 -2.98671 0 0 0 
22.6716 -5.52623e-05 0 0 -22.6716 0 0 0 
0 0 0 0 0 0 0 0 
0 0 0 0 0 0 0 0 
22.699 -5.53289e-05 0 0 -22.699 0 0 0 
22.6418 -5.51895e-05 1.70808e-06 1.00471e-06 -22.6418 0 0 12598.9 
17.5047 -4.15736e-05 -8.88011e-08 -1.02899e-06 -17.5047 0 0 6244 
2.79367 -6.63499e-06 9.65776e-07 -4.41257e-07 -2.79367 0 0 3504.89 
0 0 0 0 0 0 0 0 
0 0 0 0 0 0 0 0 
8.14804 -1.93516e-05 0 0 -8.14804 0 0 0 
23.7304 -5.63599e-05 4.14571e-06 3.55284e-07 -23.7304 0 0 12770.2 
4.09988 -9.73725e-06 6.86007e-07 7.09828e-07 -4.09988 0 0 6323.05 
16.0799 -3.81899e-05 0 0 -16.0799 0 0 0 
0 0 0 0 0 0 0 0 
0 0 0 0 0 0 0 0 
14.5622 -3.45851e-05 2.95207e-06 2.34688e-07 -14.5622 0 0 11590.8 
0 0 0 0 0 0 0 0 
4.86784 -1.15611e-05 0 0 -4.86784 0 0 0 
4.89054 -1.1615e-05 -7.8118e-07 -1.25726e-06 -4.89054 0 0 7922.68 
0 0 0 0 0 0 0 0 
0 0 0 0 0 0 0 0 
16.5498 -3.93057e-05 0 0 -16.5498 0 0 0 
8.43954 -2.0044e-05 0 0 -8.43954 0 0 0 
0 0 0 0 0 0 0 0 
1.80493 -4.28672e-06 7.03383e-06 -8.82312e-07 -1.80493 0 0 3550.04 
0 0 0 0 0 0 0 0 
0 0 0 0 0 0 0 0 
15.345 -3.64443e-05 0 0 -15.345 0 0 0 
7.67925 -1.82382e-05 0 0 -7.67925 0 0 0 
14.9178 -3.54299e-05 0 0 -14.9178 0 0 0 
8.81367 -2.09325e-05 -6.08515e-06 -2.22001e-06 -8.81367 0 0 4631.59 
0 0 0 0 0 0 0 0 
0 0 0 0 0 0 0 0 
4.18222 -9.93279e-06 -4.6149e-07 -1.37897e-06 -4.18222 0 0 6697.14 
5.74968 -1.36555e-05 0 0 -5.74968 0 0 0 
17.2935 -4.21528e-05 0 0 -17.2935 0 0 0 
8.00935 -1.95228e-05 0 0 -8.00935 0 0 0 
0 0 0 0 0 0 0 0 
0 0 0 0 0 0 0 0 
6.98022 -1.65781e-05 0 0 -6.98022 0 0 0 
0 0 0 0 0 0 0 0 
13.5272 -3.29726e-05 0 0 -13.5272 0 0 0 
13.6565 -3.32879e-05 0 0 -13.6565 0 0 0 
0 0 0 0 0 0 0 0 
0 0 0 0 0 0 0 0 
7.2661 -1.7257e-05 0 0 -7.2661 0 0 0 
8.45939 -2.00911e-05 0 0 -8.45939 0 0 0 
0 0 0 0 0 0 0 0 
30.8516 -7.52007e-05 0 0 -30.8516 0 0 0 
0 0 0 0 0 0 0 0 
0 0 0 0 0 0 0 0 
12.6909 -3.01409e-05 4.27122e-08 2.11515e-07 -12.6909 0 0 6807.52 
8.36827 -1.98747e-05 0 0 -8.36827 0 0 0 
0 0 0 0 0 0 0 0 
11.5128 -2.80625e-05 -1.21761e-07 -1.93962e-06 -11.5128 0 0 7067.99 
0 0 0 0 0 0 0 0 
0 0 0 0 0 0 0 0 
14.0501 -3.33692e-05 0 0 -14.0501 0 0 0 
7.94486 -1.88691e-05 0 0 -7.94486 0 0 0 
29.9507 -7.30048e-05 0 0 -29.9507 0 0 0 
25.5919 -6.23802e-05 2.99412e-07 -6.24995e-07 -25.5919 0 0 6862.09 
0 0 0 0 0 0 0 0 
0 0 0 0 0 0 0 0 
0 0 0 0 0 0 0 0 
7.16313 -1.70125e-05 0 0 -7.16313 0 0 0 
7.59616 -1.80409e-05 0 0 -7.59616 0 0 0 
10.1109 -2.40134e-05 0 0 -10.1109 0 0 0 
0 0 0 0 0 0 0 0 
0 0 0 0 0 0 0 0 
7.96639 -1.9418e-05 0 0 -7.96639 0 0 0 
15.4294 -3.76091e-05 0 0 -15.4294 0 0 0 
11.9579 -2.91474e-05 -4.11216e-07 1.08722e-06 -11.9579 0 0 5930.14 
0 0 0 0 0 0 0 0 
0 0 0 0 0 0 0 0 
0 0 0 0 0 0 0 0 
7.99985 -1.89998e-05 0 0 -7.99985 0 0 0 
1.92604 -4.57438e-06 -1.39496e-06 -2.48715e-06 -1.92604 0 0 1586.64 
10.4174 -2.47415e-05 1.08875e-06 -2.17138e-07 -10.4174 0 0 3785.93 
11.5215 -2.73636e-05 0 0 -11.5215 0 0 0 
0 0 0 0 0 0 0 0 
0 0 0 0 0 0 0 0 
15.6457 -3.81364e-05 0 0 -15.6457 0 0 0 
0 0 0 0 0 0 0 0 
20.3373 -4.8301e-05 1.0558e-06 -2.35103e-06 -20.3373 0 0 11342.8 
5.03914 -1.19679e-05 0 0 -5.03914 0 0 0 
0 0 0 0 0 0 0 0 
0 0 0 0 0 0 0 0 
21.4704 -5.09922e-05 -6.37065e-07 1.10025e-07 -21.4704 0 0 6652.45 
0 0 0 0 0 0 0 0 
16.0156 -3.80372e-05 1.58237e-06 -1.11784e-07 -16.0156 0 0 7599.68 
8.53239 -2.02645e-05 0 0 -8.53239 0 0 0 
0 0 0 0 0 0 0 0 
0 0 0 0 0 0 0 0 
8.38734 -1.992e-05 0 0 -8.38734 0 0 0 
24.7281 -5.87294e-05 0 0 -24.7281 0 0 0 
12.9408 -3.07344e-05 0 0 -12.9408 0 0 0 
8.36365 -1.98636e-05 0 0 -8.36365 0 0 0 
0 0 0 0 0 0 0 0 
0 0 0 0 0 0 0 0 
7.82184 -1.8577e-05 0 0 -7.82184 0 0 0 
4.63868 -1.10169e-05 5.63287e-07 3.50544e-07 -4.63868 0 0 7784.64 
0 0 0 0 0 0 0 0 
0 0 0 0 0 0 0 0 
31.4792 -7.47632e-05 0 0 -31.4792 0 0 0 
0 0 0 0 0 0 0 0 
0 0 0 0 0 0 0 0 
0 0 0 0 0 0 0 0 
7.98266 -1.94578e-05 0 0 -7.98266 0 0 0 
0 0 0 0 0 0 0 0 
13.6925 -3.25198e-05 0 0 -13.6925 0 0 0 
22.3053 -5.29752e-05 0 0 -22.3053 0 0 0 
147.064 -1.8383e-05 0 0 -147.064 0 0 0 
0 0 0 0 0 0 0 0 
0 0 0 0 0 0 0 0 
3.70619 -8.80217e-06 -1.71504e-06 -3.27465e-06 -3.70619 0 0 7385.58 
0 0 0 0 0 0 0 0 
0 0 0 0 0 0 0 0 
0 0 0 0 0 0 0 0 
0 0 0 0 0 0 0 0 
7.71135 -1.83145e-05 0 0 -7.71135 0 0 0 
12.3528 -2.93379e-05 0 0 -12.3528 0 0 0 
0 0 0 0 0 0 0 0 
0 0 0 0 0 0 0 0 
16.9382 -4.02283e-05 0 0 -16.9382 0 0 0 
15.6353 -3.71338e-05 0 0 -15.6353 0 0 0 
0 0 0 0 0 0 0 0 
0 0 0 0 0 0 0 0 
0 0 0 0 0 0 0 0 
0 0 0 0 0 0 0 0 
4.45037 -1.05696e-05 -2.66062e-06 4.05008e-07 -4.45037 0 0 8048.27 
0 0 0 0 0 0 0 0 
0 0 0 0 0 0 0 0 
0 0 0 0 0 0 0 0 
0 0 0 0 0 0 0 0 
28.0171 -6.65407e-05 1.58945e-07 -2.49794e-07 -28.0171 0 0 6196.29 
13.4129 -3.18558e-05 0 0 -13.4129 0 0 0 
4.91079 -1.16631e-05 3.67261e-07 -1.07586e-06 -4.91079 0 0 9087.99 
0 0 0 0 0 0 0 0 
0 0 0 0 0 0 0 0 
24.5841 -5.83874e-05 0 0 -24.5841 0 0 0 
2.85926 -6.79076e-06 0 0 -2.85926 0 0 0 
7.70459 -1.82984e-05 0 0 -7.70459 0 0 0 
4.29678 -1.02049e-05 -1.16328e-06 6.6183e-07 -4.29678 0 0 6945.64 
0 0 0 0 0 0 0 0 
0 0 0 0 0 0 0 0 
5.10677 -1.21286e-05 1.3363e-06 7.09471e-07 -5.10677 0 0 6634.29 
0 0 0 0 0 0 0 0 
0 0 0 0 0 0 0 0 
0 0 0 0 0 0 0 0 
23.8846 -5.67261e-05 0 0 -23.8846 0 0 0 
0 0 0 0 0 0 0 0 
0 0 0 0 0 0 0 0 
3.26525 -7.95906e-06 -1.90133e-06 1.96132e-06 -3.26525 0 0 5450.69 
0 0 0 0 0 0 0 0 
0 0 0 0 0 0 0 0 
8.3603 -1.98558e-05 -1.86544e-08 -6.2818e-08 -8.3603 0 0 2242.18 
0 0 0 0 0 0 0 0 
2.44974 -5.81814e-06 0 0 -2.44974 0 0 0 
13.2166 -3.13896e-05 0 0 -13.2166 0 0 0 
0 0 0 0 0 0 0 0 
0 0 0 0 0 0 0 0 
0 0 0 0 0 0 0 0 
12.3002 -2.99819e-05 0 0 -12.3002 0 0 0 
5.49377 -1.30478e-05 0 0 -5.49377 0 0 0 
4.73995 -1.12574e-05 1.84426e-06 5.10785e-07 -4.73995 0 0 7471.56 
0 0 0 0 0 0 0 0 
0 0 0 0 0 0 0 0 
15.3141 -3.6371e-05 0 0 -15.3141 0 0 0 
7.7593 -1.84284e-05 0 0 -7.7593 0 0 0 
16.7453 -3.977e-05 0 0 -16.7453 0 0 0 
0 0 0 0 0 0 0 0 
0 0 0 0 0 0 0 0 
0 0 0 0 0 0 0 0 
3.20149 -7.60355e-06 8.50589e-07 -9.04352e-07 -3.20149 0 0 4760.57 
19.2651 -4.57547e-05 -6.63051e-07 1.09047e-06 -19.2651 0 0 7258.25 
12.286 -2.91792e-05 -1.08277e-06 -6.11573e-07 -12.286 0 0 8132.89 
2.74332 -6.51543e-06 4.99531e-07 -5.78438e-07 -2.74332 0 0 4521.18 
0 0 0 0 0 0 0 0 
0 0 0 0 0 0 0 0 
6.87388 -1.63255e-05 0 0 -6.87388 0 0 0 
12.442 -2.95498e-05 -6.95125e-08 -8.25137e-07 -12.442 0 0 6700.92 
8.08661 -1.92058e-05 0 0 -8.08661 0 0 0 
8.01629 -1.90388e-05 0 0 -8.01629 0 0 0 
157.539 -1.96926e-05 0 0 -157.539 0 0 0 
0 0 0 0 0 0 0 0 
8.19662 -1.9467e-05 7.3669e-07 -5.14672e-07 -8.19662 0 0 5950.73 
7.96378 -1.8914e-05 0 0 -7.96378 0 0 0 
8.11647 -1.92767e-05 0 0 -8.11647 0 0 0 
20.2861 -4.81796e-05 -4.04378e-07 -8.69101e-07 -20.2861 0 0 5403.96 
0 0 0 0 0 0 0 0 
0 0 0 0 0 0 0 0 
0 0 0 0 0 0 0 0 
1.21948 -2.89626e-06 0 0 -1.21948 0 0 0 
7.7041 -1.82972e-05 0 0 -7.7041 0 0 0 
4.36327 -1.03627e-05 2.89935e-07 5.94357e-07 -4.36327 0 0 7173.92 
0 0 0 0 0 0 0 0 
0 0 0 0 0 0 0 0 
5.31842 -1.26313e-05 0 0 -5.31842 0 0 0 
23.7805 -5.64789e-05 0 0 -23.7805 0 0 0 
0 0 0 0 0 0 0 0 
0 0 0 0 0 0 0 0 
0 0 0 0 0 0 0 0 
0 0 0 0 0 0 0 0 
18.7027 -4.44189e-05 -4.11972e-07 8.60314e-07 -18.7027 0 0 4420.41 
11.2892 -2.68117e-05 5.72938e-07 5.8895e-07 -11.2892 0 0 3920.73 
0 0 0 0 0 0 0 0 
0 0 0 0 0 0 0 0 
13.3279 -3.16538e-05 0 0 -13.3279 0 0 0 
19.4284 -4.61427e-05 0 0 -19.4284 0 0 0 
0 0 0 0 0 0 0 0 
13.8337 -3.2855e-05 0 0 -13.8337 0 0 0 
92.6066 -1.15759e-05 -4.49342e-07 -7.95796e-07 -92.6066 0 0 151031 
0 0 0 0 0 0 0 0 
8.91717 -2.11783e-05 -4.7761e-07 -1.56538e-06 -8.91717 0 0 13582.6 
8.30675 -1.97285e-05 0 0 -8.30675 0 0 0 
0 0 0 0 0 0 0 0 
16.7002 -3.96629e-05 0 0 -16.7002 0 0 0 
0 0 0 0 0 0 0 0 
0 0 0 0 0 0 0 0 
5.55833 -1.3201e-05 0 0 -5.55833 0 0 0 
5.48107 -1.30175e-05 0 0 -5.48107 0 0 0 
0 0 0 0 0 0 0 0 
8.40143 -1.99534e-05 0 0 -8.40143 0 0 0 
0 0 0 0 0 0 0 0 
0 0 0 0 0 0 0 0 
19.8667 -4.71836e-05 0 0 -19.8667 0 0 0 
15.2609 -3.62446e-05 0 0 -15.2609 0 0 0 
0 0 0 0 0 0 0 0 
0 0 0 0 0 0 0 0 
7.57747 -1.79965e-05 0 0 -7.57747 0 0 0 
23.2383 -5.5191e-05 5.81889e-07 -9.85261e-07 -23.2383 0 0 7268.06 
0 0 0 0 0 0 0 0 
0 0 0 0 0 0 0 0 
8.35511 -1.98434e-05 0 0 -8.35511 0 0 0 
7.61218 -1.80789e-05 0 0 -7.61218 0 0 0 
0 0 0 0 0 0 0 0 
145.817 -1.82271e-05 0 0 -145.817 0 0 0 
0 0 0 0 0 0 0 0 
8.86775 -2.10609e-05 -1.56178e-06 -7.97909e-07 -8.86775 0 0 10595 
0 0 0 0 0 0 0 0 
0 0 0 0 0 0 0 0 
15.9228 -3.88121e-05 0 0 -15.9228 0 0 0 
0 0 0 0 0 0 0 0 
9.54186 -0.00470346 9.69085e-06 -1.30212e-05 -9.54186 0 0 2210.45 
8.09271 -0.000394519 -1.56327e-06 -5.0318e-07 -8.09271 0 0 234.161 
15.16 -3.79e-05 0 0 -15.16 0 0 0 
8.87098 -0.000421372 5.99661e-07 3.40843e-06 -8.87098 0 0 1487.31 
14.241 -3.56026e-05 0 0 -14.241 0 0 0 
8.51707 -0.000404561 2.24146e-06 -3.5919e-06 -8.51707 0 0 1337.73 
8.35961 -2.08991e-05 -8.1654e-08 -4.49412e-07 -8.35961 0 0 5860.18 
8.90132 -0.000422813 -1.06125e-06 -1.08642e-06 -8.90132 0 0 1379.35 
27.0431 -6.76078e-05 1.60885e-06 -1.12861e-06 -27.0431 0 0 6961.44 
9.75587 -0.000463404 8.0975e-06 -1.28383e-05 -9.75587 0 0 2045.01 
3.34526 -8.36317e-06 0 0 -3.34526 0 0 0 
10.7834 -0.000512213 9.20839e-07 3.203e-06 -10.7834 0 0 3791.51 
0 0 0 0 0 0 0 0 
8.09578 -0.00038455 -1.61092e-07 -2.74015e-08 -8.09578 0 0 693.894 
22.9718 -5.74299e-05 0 0 -22.9718 0 0 2.05994e-11 
7.27602 -0.000354706 2.18312e-06 -3.0008e-07 -7.27602 0 0 2019.13 
8.95309 -0.00390677 -1.23752e-05 -1.70431e-06 -8.95309 0 0 1537.76 
7.61102 -0.000530571 -3.90261e-06 3.45225e-06 -7.61102 0 0 783.945 
11.3284 -0.000974243 -1.31626e-06 4.84905e-07 -11.3284 0 0 2295.2 
12.073 -0.00103828 -1.25557e-08 -2.75042e-06 -12.073 0 0 1783.73 
9.44973 -0.000460674 -3.05888e-06 -7.89754e-07 -9.44973 0 0 1468.33 
7.86971 -1.96743e-05 0 0 -7.86971 0 0 0 
11.1585 -0.000530027 -2.42472e-07 -5.99893e-07 -11.1585 0 0 2645.45 
2.66574 -6.66436e-06 0 0 -2.66574 0 0 0 
9.39916 -0.00044646 1.18923e-06 7.73831e-06 -9.39916 0 0 1732.13 
4.13762 -1.03441e-05 6.03853e-07 -7.19665e-07 -4.13762 0 0 4123.84 
12.7491 -0.00060558 -6.53834e-10 -1.97988e-06 -12.7491 0 0 1829.26 
14.4757 -3.61892e-05 0 0 -14.4757 0 0 0 
6.78965 -0.000322509 -3.44491e-07 1.2465e-06 -6.78965 0 0 830.395 
10.193 -2.54825e-05 -5.44843e-07 2.82891e-07 -10.193 0 0 5912.19 
13.1776 -0.000625934 3.61801e-06 -5.3257e-06 -13.1776 0 0 2326.26 
7.73659 -1.93414e-05 0 0 -7.73659 0 0 0 
7.37046 -0.000350097 -1.48065e-06 3.78566e-06 -7.37046 0 0 1603.15 
6.44409 -1.61103e-05 0 0 -6.44409 0 0 5.68259e-12 
8.48765 -0.000413773 4.94594e-06 3.12626e-06 -8.48765 0 0 1654.36 
9.11769 -0.000444488 7.04483e-06 -3.68907e-06 -9.11769 0 0 1429.91 
10.0691 -0.00496335 -1.8723e-06 1.30982e-06 -10.0691 0 0 2401.21 
10.5497 -0.000907274 1.18731e-06 2.85932e-06 -10.5497 0 0 1917.79 
8.52082 -0.000732791 1.68274e-06 1.70645e-06 -8.52082 0 0 907.1 
10.4941 -0.000137915 1.39102e-06 1.57482e-07 -10.4941 0 0 3665.18 
7.64161 -0.000372529 9.56385e-07 -2.83921e-06 -7.64161 0 0 1667.62 
0 0 0 0 0 0 0 0 
7.93027 -0.000376688 -3.79426e-06 -4.74034e-07 -7.93027 0 0 3218.64 
4.13132 -1.03283e-05 -8.19792e-07 1.19732e-07 -4.13132 0 0 6501.52 
7.58169 -0.00036013 -1.8834e-06 8.22093e-07 -7.58169 0 0 3125.67 
0 0 0 0 0 0 0 0 
7.8543 -0.000373079 2.29866e-07 -2.71752e-06 -7.8543 0 0 1082.05 
8.4619 -2.11548e-05 0 0 -8.4619 0 0 0 
11.6066 -0.000551314 -1.12724e-06 -6.03647e-07 -11.6066 0 0 312.659 
10.6541 -2.66353e-05 -1.67858e-06 1.74711e-06 -10.6541 0 0 5412.5 
11.5973 -0.000550871 -3.94261e-06 2.00108e-07 -11.5973 0 0 2819.5 
4.25007 -1.06252e-05 0 0 -4.25007 0 0 0 
10.4232 -0.000495102 -1.06722e-06 -7.6562e-07 -10.4232 0 0 2273 
0 0 0 0 0 0 0 0 
6.26003 -0.000305177 -4.8548e-06 2.31921e-06 -6.26003 0 0 1055.51 
9.07776 -0.00447469 6.08088e-06 1.1126e-05 -9.07776 0 0 1706.6 
7.70752 -1.92688e-05 0 0 -7.70752 0 0 0 
9.13916 -0.00043411 -1.11327e-06 -2.09632e-07 -9.13916 0 0 1548.08 
7.35312 -1.83828e-05 0 0 -7.35312 0 0 0 
8.66194 -0.000411442 -5.23017e-06 -1.36962e-06 -8.66194 0 0 1110.34 
29.1282 -7.28206e-05 4.62602e-07 1.70192e-07 -29.1282 0 0 6032.04 
10.1944 -0.000484236 5.07871e-06 -2.15223e-06 -10.1944 0 0 2258.36 
7.31369 -1.82842e-05 0 0 -7.31369 0 0 0 
10.8871 -0.000517139 -2.12949e-06 -3.94937e-06 -10.8871 0 0 2766.94 
19.93 -4.98251e-05 0 0 -19.93 0 0 0 
7.19835 -0.000341922 2.36907e-06 2.15505e-06 -7.19835 0 0 1865.05 
4.17456 -1.04364e-05 -1.14228e-06 -5.87486e-07 -4.17456 0 0 7615.05 
7.71749 -0.000366581 1.2534e-06 9.68609e-07 -7.71749 0 0 1690.14 
13.1392 -3.28483e-05 0 0 -13.1392 0 0 1.13652e-11 
7.46537 -0.000363937 3.39974e-06 -2.15245e-06 -7.46537 0 0 1438.85 
0.153591 -3.45361e-05 8.98509e-05 -6.41163e-06 0 0.153591 0 99.5805 
0.35684 -8.67043e-06 0.000104376 1.23093e-06 0 0.35684 0 70.3184 
0.377394 -3.40101e-06 0.000110388 1.99267e-06 0 0.377394 0 32.5401 
0 0 0 0 0 0 0 0 
0 0 0 0 0 0 0 0 
1.84453 4.38078e-06 0 0 1.84453 0 0 0 
0 0 0 0 0 0 0 0 
0 0 0 0 0 0 0 0 
0 0 0 0 0 0 0 0 
0 0 0 0 0 0 0 0 
0 0 0 0 0 0 0 0 
0 0 0 0 0 0 0 0 
0 0 0 0 0 0 0 0 
0 0 0 0 0 0 0 0 
0 0 0 0 0 0 0 0 
0 0 0 0 0 0 0 0 
0 0 0 0 0 0 0 0 
0 0 0 0 0 0 0 0 
0 0 0 0 0 0 0 0 
0 0 0 0 0 0 0 0 
0 0 0 0 0 0 0 0 
0 0 0 0 0 0 0 0 
0 0 0 0 0 0 0 0 
0 0 0 0 0 0 0 0 
0.785827 1.86634e-06 0 0 0.785827 0 0 0 
0 0 0 0 0 0 0 0 
0 0 0 0 0 0 0 0 
0 0 0 0 0 0 0 0 
4.10774 9.75591e-06 -3.06768e-07 -6.96512e-07 4.10774 0 0 5880.38 
0 0 0 0 0 0 0 0 
0 0 0 0 0 0 0 0 
0 0 0 0 0 0 0 0 
0 0 0 0 0 0 0 0 
0 0 0 0 0 0 0 0 
1.23121 2.92414e-06 0 0 1.23121 0 0 0 
0 0 0 0 0 0 0 0 
0 0 0 0 0 0 0 0 
0 0 0 0 0 0 0 0 
3.29005 8.43076e-06 0 0 3.29005 0 0 0 
0 0 0 0 0 0 0 0 
0 0 0 0 0 0 0 0 
0 0 0 0 0 0 0 0 
2.6557 6.30727e-06 0 0 2.6557 0 0 0 
0 0 0 0 0 0 0 0 
0 0 0 0 0 0 0 0 
0 0 0 0 0 0 0 0 
0 0 0 0 0 0 0 0 
0 0 0 0 0 0 0 0 
0 0 0 0 0 0 0 0 
0 0 0 0 0 0 0 0 
0 0 0 0 0 0 0 0 
0 0 0 0 0 0 0 0 
0 0 0 0 0 0 0 0 
3.13437 7.44414e-06 0 0 3.13437 0 0 0 
0 0 0 0 0 0 0 0 
0 0 0 0 0 0 0 0 
0 0 0 0 0 0 0 0 
0 0 0 0 0 0 0 0 
0 0 0 0 0 0 0 0 
0 0 0 0 0 0 0 0 
3.2476 7.71306e-06 0 0 3.2476 0 0 0 
0 0 0 0 0 0 0 0 
0 0 0 0 0 0 0 0 
0 0 0 0 0 0 0 0 
0 0 0 0 0 0 0 0 
0 0 0 0 0 0 0 0 
0 0 0 0 0 0 0 0 
0 0 0 0 0 0 0 0 
1.15555 2.74442e-06 0 0 1.15555 0 0 0 
0 0 0 0 0 0 0 0 
0 0 0 0 0 0 0 0 
0 0 0 0 0 0 0 0 
0 0 0 0 0 0 0 0 
0 0 0 0 0 0 0 0 
0 0 0 0 0 0 0 0 
0.858972 2.04006e-06 0 0 0.858972 0 0 0 
0 0 0 0 0 0 0 0 
0 0 0 0 0 0 0 0 
0 0 0 0 0 0 0 0 
0 0 0 0 0 0 0 0 
0 0 0 0 0 0 0 0 
0 0 0 0 0 0 0 0 
0 0 0 0 0 0 0 0 
3.25575 7.7324e-06 3.75518e-08 -1.99006e-06 3.25575 0 0 1032.37 
0 0 0 0 0 0 0 0 
22.8264 2.85329e-06 0 0 22.8264 0 0 0 
0 0 0 0 0 0 0 0 
0 0 0 0 0 0 0 0 
4.79318 1.13838e-05 0 0 4.79318 0 0 0 
0 0 0 0 0 0 0 0 
0 0 0 0 0 0 0 0 
0 0 0 0 0 0 0 0 
0 0 0 0 0 0 0 0 
0 0 0 0 0 0 0 0 
1.39581 3.31507e-06 0 0 1.39581 0 0 0 
0 0 0 0 0 0 0 0 
0 0 0 0 0 0 0 0 
0 0 0 0 0 0 0 0 
4.12056 9.78636e-06 0 0 4.12056 0 0 0 
0 0 0 0 0 0 0 0 
0 0 0 0 0 0 0 0 
0 0 0 0 0 0 0 0 
0 0 0 0 0 0 0 0 
0 0 0 0 0 0 0 0 
0 0 0 0 0 0 0 0 
0 0 0 0 0 0 0 0 
0 0 0 0 0 0 0 0 
1.47589 3.50523e-06 -2.38987e-06 2.47192e-06 1.47589 0 0 2607.94 
0 0 0 0 0 0 0 0 
0 0 0 0 0 0 0 0 
0 0 0 0 0 0 0 0 
1.0085 2.3952e-06 -1.92786e-06 8.18803e-07 1.0085 0 0 713.999 
0 0 0 0 0 0 0 0 
0 0 0 0 0 0 0 0 
0 0 0 0 0 0 0 0 
0 0 0 0 0 0 0 0 
0 0 0 0 0 0 0 0 
0 0 0 0 0 0 0 0 
0 0 0 0 0 0 0 0 
0 0 0 0 0 0 0 0 
0 0 0 0 0 0 0 0 
2.90546 6.90049e-06 0 0 2.90546 0 0 0 
0 0 0 0 0 0 0 0 
0 0 0 0 0 0 0 0 
0 0 0 0 0 0 0 0 
0 0 0 0 0 0 0 0 
0 0 0 0 0 0 0 0 
0 0 0 0 0 0 0 0 
0 0 0 0 0 0 0 0 
0 0 0 0 0 0 0 0 
0 0 0 0 0 0 0 0 
0 0 0 0 0 0 0 0 
0 0 0 0 0 0 0 0 
0 0 0 0 0 0 0 0 
0 0 0 0 0 0 0 0 
0 0 0 0 0 0 0 0 
0 0 0 0 0 0 0 0 
8.80785 2.09187e-05 0 0 8.80785 0 0 0 
0 0 0 0 0 0 0 0 
0 0 0 0 0 0 0 0 
0 0 0 0 0 0 0 0 
0 0 0 0 0 0 0 0 
5.4186 1.28691e-05 0 0 5.4186 0 0 0 
0 0 0 0 0 0 0 0 
0 0 0 0 0 0 0 0 
0 0 0 0 0 0 0 0 
0 0 0 0 0 0 0 0 
0 0 0 0 0 0 0 0 
0 0 0 0 0 0 0 0 
0 0 0 0 0 0 0 0 
0 0 0 0 0 0 0 0 
0 0 0 0 0 0 0 0 
0 0 0 0 0 0 0 0 
0 0 0 0 0 0 0 0 
0 0 0 0 0 0 0 0 
0 0 0 0 0 0 0 0 
0 0 0 0 0 0 0 0 
0 0 0 0 0 0 0 0 
0 0 0 0 0 0 0 0 
0 0 0 0 0 0 0 0 
0 0 0 0 0 0 0 0 
0 0 0 0 0 0 0 0 
0 0 0 0 0 0 0 0 
0 0 0 0 0 0 0 0 
0 0 0 0 0 0 0 0 
0 0 0 0 0 0 0 0 
0 0 0 0 0 0 0 0 
0 0 0 0 0 0 0 0 
1.92125 4.56298e-06 0 0 1.92125 0 0 0 
0 0 0 0 0 0 0 0 
0 0 0 0 0 0 0 0 
0 0 0 0 0 0 0 0 
0 0 0 0 0 0 0 0 
0 0 0 0 0 0 0 0 
0 0 0 0 0 0 0 0 
0 0 0 0 0 0 0 0 
0 0 0 0 0 0 0 0 
0 0 0 0 0 0 0 0 
0 0 0 0 0 0 0 0 
0 0 0 0 0 0 0 0 
0 0 0 0 0 0 0 0 
0 0 0 0 0 0 0 0 
0 0 0 0 0 0 0 0 
0 0 0 0 0 0 0 0 
0 0 0 0 0 0 0 0 
0 0 0 0 0 0 0 0 
0 0 0 0 0 0 0 0 
0 0 0 0 0 0 0 0 
0 0 0 0 0 0 0 0 
0 0 0 0 0 0 0 0 
0 0 0 0 0 0 0 0 
0 0 0 0 0 0 0 0 
0 0 0 0 0 0 0 0 
0 0 0 0 0 0 0 0 
0 0 0 0 0 0 0 0 
0 0 0 0 0 0 0 0 
0 0 0 0 0 0 0 0 
0 0 0 0 0 0 0 0 
0 0 0 0 0 0 0 0 
0 0 0 0 0 0 0 0 
0 0 0 0 0 0 0 0 
0 0 0 0 0 0 0 0 
0.921886 2.18949e-06 0 0 0.921886 0 0 0 
0 0 0 0 0 0 0 0 
0 0 0 0 0 0 0 0 
0 0 0 0 0 0 0 0 
0 0 0 0 0 0 0 0 
0 0 0 0 0 0 0 0 
0 0 0 0 0 0 0 0 
0 0 0 0 0 0 0 0 
0 0 0 0 0 0 0 0 
0 0 0 0 0 0 0 0 
0 0 0 0 0 0 0 0 
0 0 0 0 0 0 0 0 
0 0 0 0 0 0 0 0 
0 0 0 0 0 0 0 0 
0 0 0 0 0 0 0 0 
0 0 0 0 0 0 0 0 
0 0 0 0 0 0 0 0 
0 0 0 0 0 0 0 0 
0 0 0 0 0 0 0 0 
0 0 0 0 0 0 0 0 
0 0 0 0 0 0 0 0 
0 0 0 0 0 0 0 0 
0 0 0 0 0 0 0 0 
0.875202 2.07861e-06 1.92666e-06 -3.02593e-07 0.875202 0 0 2716.05 
0 0 0 0 0 0 0 0 
0 0 0 0 0 0 0 0 
0 0 0 0 0 0 0 0 
0 0 0 0 0 0 0 0 
3.87474 9.44469e-06 0 0 3.87474 0 0 0 
1.34298 3.27351e-06 0 0 1.34298 0 0 0 
0 0 0 0 0 0 0 0 
3.68344 8.74822e-06 0 0 3.68344 0 0 0 
3.07628 7.3062e-06 0 0 3.07628 0 0 0 
0.671279 1.63625e-06 0 0 0.671279 0 0 0 
0 0 0 0 0 0 0 0 
0 0 0 0 0 0 0 0 
2.45838 5.83867e-06 0 0 2.45838 0 0 0 
0 0 0 0 0 0 0 0 
0 0 0 0 0 0 0 0 
0 0 0 0 0 0 0 0 
0 0 0 0 0 0 0 0 
0 0 0 0 0 0 0 0 
0 0 0 0 0 0 0 0 
0 0 0 0 0 0 0 0 
0 0 0 0 0 0 0 0 
0 0 0 0 0 0 0 0 
0 0 0 0 0 0 0 0 
0 0 0 0 0 0 0 0 
8.17877 1.94246e-05 0 0 8.17877 0 0 0 
0 0 0 0 0 0 0 0 
0 0 0 0 0 0 0 0 
0 0 0 0 0 0 0 0 
0 0 0 0 0 0 0 0 
0 0 0 0 0 0 0 0 
0 0 0 0 0 0 0 0 
0 0 0 0 0 0 0 0 
0 0 0 0 0 0 0 0 
0 0 0 0 0 0 0 0 
0 0 0 0 0 0 0 0 
1.43089 3.4878e-06 0 0 1.43089 0 0 0 
0 0 0 0 0 0 0 0 
0 0 0 0 0 0 0 0 
0 0 0 0 0 0 0 0 
0 0 0 0 0 0 0 0 
0 0 0 0 0 0 0 0 
0 0 0 0 0 0 0 0 
0 0 0 0 0 0 0 0 
16.2092 2.02615e-06 -2.30075e-07 2.79676e-06 16.2092 0 0 26231.1 
0 0 0 0 0 0 0 0 
0 0 0 0 0 0 0 0 
0 0 0 0 0 0 0 0 
0 0 0 0 0 0 0 0 
0 0 0 0 0 0 0 0 
0 0 0 0 0 0 0 0 
0 0 0 0 0 0 0 0 
0 0 0 0 0 0 0 0 
0 0 0 0 0 0 0 0 
0.422361 1.0295e-06 0 0 0.422361 0 0 0 
0 0 0 0 0 0 0 0 
0 0 0 0 0 0 0 0 
0 0 0 0 0 0 0 0 
0 0 0 0 0 0 0 0 
0 0 0 0 0 0 0 0 
0.393831 9.59969e-07 0 0 0.393831 0 0 0 
0 0 0 0 0 0 0 0 
0 0 0 0 0 0 0 0 
0 0 0 0 0 0 0 0 
0 0 0 0 0 0 0 0 
0 0 0 0 0 0 0 0 
0 0 0 0 0 0 0 0 
0 0 0 0 0 0 0 0 
0 0 0 0 0 0 0 0 
0 0 0 0 0 0 0 0 
2.14033 5.08331e-06 3.34711e-06 8.9996e-07 2.14033 0 0 2418.91 
0 0 0 0 0 0 0 0 
0.236719 5.77004e-07 0 0 0.236719 0 0 0 
0 0 0 0 0 0 0 0 
0 0 0 0 0 0 0 0 
0 0 0 0 0 0 0 0 
0 0 0 0 0 0 0 0 
0 0 0 0 0 0 0 0 
0 0 0 0 0 0 0 0 
0 0 0 0 0 0 0 0 
0 0 0 0 0 0 0 0 
0 0 0 0 0 0 0 0 
0 0 0 0 0 0 0 0 
0 0 0 0 0 0 0 0 
0 0 0 0 0 0 0 0 
0 0 0 0 0 0 0 0 
0 0 0 0 0 0 0 0 
0 0 0 0 0 0 0 0 
0 0 0 0 0 0 0 0 
0 0 0 0 0 0 0 0 
0 0 0 0 0 0 0 0 
0 0 0 0 0 0 0 0 
0 0 0 0 0 0 0 0 
0 0 0 0 0 0 0 0 
0 0 0 0 0 0 0 0 
0 0 0 0 0 0 0 0 
0 0 0 0 0 0 0 0 
9.18976 2.24e-05 0 0 9.18976 0 0 0 
0 0 0 0 0 0 0 0 
0 0 0 0 0 0 0 0 
0 0 0 0 0 0 0 0 
1.91197 4.66043e-06 0 0 1.91197 0 0 0 
0 0 0 0 0 0 0 0 
0 0 0 0 0 0 0 0 
0.224008 -1.38167e-05 -0.000131045 5.63126e-06 0 -0.224008 0 71.7024 
0.295883 -6.06204e-06 -0.000173091 3.1345e-06 0 -0.295883 0 12.7175 
2.42654 -0.000316889 0.000281585 -0.000291796 -1.21327 1.48595 -1.48595 728.997 
2.39001 -0.000350659 0.000270781 -0.000262507 -1.195 1.46357 -1.46358 1077.33 
0.0518625 -0.000441751 0.000458525 0.000487622 0 0.0366723 0.0366723 61.8152 
0.0518111 -0.000949077 0.00104179 0.00105745 1.22905e-09 0.036636 0.036636 60.505 
0.0445794 -0.000203207 0.000193351 0.000197657 0 0.0315224 0.0315224 64.911 
0.0594925 -0.00038854 0.000879768 -1.80922e-06 0 0.0594925 0 49.3006 
0.0452215 -0.000367985 0.00066873 -2.6682e-06 0 0.0452215 0 46.8683 
0.0492138 -0.000300407 -7.97032e-06 0.000727767 0 0 0.0492138 38.4127 
0.0508927 -0.000477987 1.35085e-05 0.000752594 0 0 0.0508927 60.6716 
0.0547594 -0.000958391 0.00108636 0.00113234 0 0.0387208 0.0387208 59.5052 
0.0506415 -0.000274304 0.000468275 0.000455595 -7.39291e-10 0.0358089 0.0358089 39.5587 
0.0415067 -0.000153453 0.000184636 0.000179422 0 0.0293497 0.0293497 46.4169 
2.18738 -0.000305006 -0.000252539 0.000248528 -1.09369 -1.33949 1.33949 870.696 
2.64907 -0.000352605 -0.000309549 0.000310989 -1.32453 -1.62221 1.62222 912.622 
0.0501273 -0.000841781 -0.00100695 -0.00102407 0 -0.0354454 -0.0354454 52.158 
0.0462425 -0.000408429 -0.000413756 -0.000429863 2.43626e-09 -0.0326984 -0.0326984 57.7872 
0.0451442 -0.000120377 -0.000199267 -0.000196695 0 -0.0319217 -0.0319217 32.2546 
0.0617529 -0.000348547 -0.000913194 8.62282e-06 0 -0.0617529 0 43.8175 
0.048111 -0.000507741 -0.000711459 1.09214e-06 0 -0.048111 0 62.5768 
0.0590905 -0.000437871 3.32403e-06 -0.000873822 0 0 -0.0590905 53.6625 
0.0488621 -0.000441224 4.57004e-06 -0.000722566 0 0 -0.0488621 55.2244 
0.0615753 -0.000368252 -0.000563529 -0.000559811 0 -0.0435403 -0.0435403 52.1879 
0.050727 -0.00076552 -0.00103764 -0.00101768 -3.33437e-10 -0.0358694 -0.0358694 48.7209 
0.0475833 -0.000214587 -0.000204234 -0.000213122 0 -0.0336465 -0.0336465 63.7408 
0.321233 -2.91375e-05 7.37323e-07 -0.000187921 0 0 -0.321233 111.665 
0.464609 -1.78432e-05 -9.33658e-07 -0.000271796 0 0 -0.464609 62.6394 
0.297967 -1.93313e-05 -0.000169841 1.63238e-06 0 -0.297967 0 91.5396 
0.483434 -4.85785e-05 -0.000275557 5.45811e-06 0 -0.483434 0 147.312 
0.343591 -3.06598e-05 -2.74449e-06 0.000201 0 0 0.343591 103.046 
0.447785 -3.46972e-05 -5.23503e-07 0.000261954 0 0 0.447785 146.707 
0.458654 -2.56544e-05 0.000261433 3.28557e-06 0 0.458654 0 135.221 
0.292113 -2.60915e-05 0.000166504 -2.66905e-06 0 0.292113 0 76.5884 
0.174342 -1.66326e-06 9.93751e-05 -5.92663e-06 0 0.174342 0 22.443 
0.179569 -1.80136e-05 0.000102354 -5.82807e-07 0 0.179569 0 56.7052 
0.176654 -9.17029e-06 -5.12382e-06 -0.000100693 0 0 -0.176654 42.9747 
0.119379 -1.4927e-05 2.87079e-06 -6.80457e-05 0 0 -0.119379 53.1384 
0.159187 -1.91931e-05 -9.07364e-05 5.53072e-06 0 -0.159187 0 62.0282 
0.177236 -1.95732e-05 -0.000101024 -7.55116e-06 0 -0.177236 0 115.373 
0.185403 -4.17565e-06 -4.3158e-06 0.000105679 0 -3.63506e-08 0.185403 17.6682 
0.12034 -3.61425e-05 2.28495e-06 6.8594e-05 0 -2.35943e-08 0.12034 128.154 
0.266838 -1.52817e-05 0.000152098 -3.35923e-06 0 0.266838 0 37.0995 
0.204453 -2.56094e-05 0.000116538 -3.00265e-07 0 0.204453 0 99.1389 
0.289901 -6.83391e-05 -1.85939e-06 -0.000165243 0 0 -0.289901 212.397 
0.265608 -1.12965e-05 -2.83453e-06 -0.000151396 0 0 -0.265608 42.1403 
0.230948 -1.60625e-05 -0.00013164 6.28875e-06 0 -0.230948 0 168.238 
0.255133 -5.20669e-05 -0.000145426 -7.89338e-06 0 -0.255133 0 179.694 
0.344017 -9.60008e-06 -8.65449e-07 0.00019609 0 0 0.344017 31.8327 
0.252413 -1.87018e-05 -5.70158e-06 0.000143876 0 0 0.252413 80.109 
0.352632 -2.35815e-05 -0.000201 -8.61466e-07 0 -0.352632 0 96.854 
0.422492 -3.96596e-05 -0.000240821 -3.52853e-06 0 -0.422492 0 173.893 
0.382768 -4.02878e-05 -3.79119e-06 0.000218178 0 0 0.382768 126.255 
0.455116 -2.73373e-05 -2.21352e-06 0.000259416 0 0 0.455116 117.947 
0.379918 -7.0696e-06 0.000216553 -3.06219e-06 0 0.379918 0 13.4955 
0.38441 -3.50934e-05 0.000219114 -5.94049e-06 0 0.38441 0 142.347 
0.280002 -2.2638e-05 5.75064e-06 -0.000159601 0 0 -0.280002 82.153 
0.564104 -5.34745e-05 -1.20237e-06 -0.000321539 0 0 -0.564104 160.242 
0.355493 -5.8456e-05 0.000202631 -9.25116e-06 0 0.355493 0 184.306 
0.452383 -2.43892e-05 0.000257858 5.42802e-07 0 0.452383 0 58.3697 
0.318347 -4.09071e-05 2.03491e-05 -0.000181458 0 0 -0.318347 129.26 
0.369271 -1.79026e-05 4.80374e-06 -0.000210485 0 0 -0.369271 76.1242 
0.430272 -1.23966e-05 -0.000245255 -9.79811e-07 0 -0.430272 0 51.0062 
0.472896 -5.36498e-05 -0.000269551 4.81324e-06 0 -0.472896 0 144.55 
0.365766 -5.27305e-05 1.99109e-05 0.000208487 0 0 0.365766 161.925 
0.382546 -2.73179e-05 -4.99161e-06 0.000218051 0 0 0.382546 92.5297 
0.295313 -3.29054e-05 0.000168328 2.66655e-06 0 0.295313 0 104.394 
0.339555 -3.39522e-05 0.000193546 1.12876e-05 0 0.339555 0 119.419 
0.332896 -5.57291e-05 9.17752e-06 -0.000189751 0 0 -0.332896 203.975 
0.397058 -2.78909e-05 3.68618e-06 -0.000226323 0 0 -0.397058 89.9032 
0.304157 -2.30779e-05 -0.000173369 -1.56704e-05 0 -0.304157 0 120.856 
0.363414 -1.97907e-05 -0.000207146 3.52868e-06 0 -0.363414 0 93.6915 
0.339426 -1.85211e-05 -7.26712e-06 0.000193473 0 0 0.339426 67.0224 
0.423467 -1.60563e-05 3.98909e-06 0.000241376 0 0 0.423467 56.277 
0.299638 -2.75015e-05 1.5885e-05 -0.000170794 0 0 -0.299638 127.598 
0.25394 -1.3638e-05 -1.80388e-06 -0.000144746 0 0 -0.25394 40.7653 
0.223457 -5.07216e-05 -0.00012737 4.38063e-06 0 -0.223457 0 136.776 
0.248273 -1.45984e-05 -0.000141516 2.8075e-06 0 -0.248273 0 33.8643 
0.289338 -3.36332e-05 7.79784e-06 0.000164923 0 0 0.289338 127.712 
0.255551 -4.90238e-06 1.37955e-06 0.000145664 0 0 0.255551 31.3758 
0.232588 -1.31802e-05 0.000132575 5.08601e-06 0 0.232588 0 46.7843 
0.206032 -2.49999e-05 0.000117438 -5.3796e-06 0 0.206032 0 77.5508 
0.290766 -3.40614e-05 0.000165736 -7.31527e-06 0 0.290766 0 92.1528 
0.315818 -5.67772e-05 0.000180016 1.25242e-05 0 0.315818 0 160.882 
0.279671 -7.02648e-06 -9.29363e-07 -0.000159412 0 0 -0.279671 37.4694 
0.406055 -2.94766e-05 -1.48346e-06 -0.000231451 0 0 -0.406055 102.124 
0.350483 -1.20641e-05 -0.000199776 7.7906e-07 0 -0.350483 0 37.3355 
0.230709 -4.21943e-05 -0.000131504 6.93573e-07 0 -0.230709 0 122.613 
0.381684 -1.92117e-05 -9.05661e-06 0.00021756 0 0 0.381684 87.7454 
0.308455 -4.06039e-05 -8.00977e-08 0.000175819 0 0 0.308455 113.279 
0.325043 -1.89768e-05 -9.08455e-06 -0.000185274 0 0 -0.325043 93.4657 
0.318125 -2.65023e-05 1.81378e-07 -0.000181332 0 0 -0.318125 89.2792 
0.381808 -2.71929e-05 -0.000217631 3.05721e-06 0 -0.381808 0 101.489 
0.205154 -1.60818e-05 -0.000116938 1.10821e-06 0 -0.205154 0 53.3897 
0.385967 -5.26028e-06 -2.36882e-06 0.000220001 0 0 0.385967 29.8521 
0.256843 -1.98925e-05 2.18328e-06 0.000146401 0 0 0.256843 80.4622 
0.302823 -4.09942e-05 0.000172609 -1.86615e-06 0 0.302823 5.93724e-08 128.427 