ITEM: TIMESTEP
75
ITEM: NUMBER OF SURFS
6916
ITEM: BOX BOUNDS oo rr rr
-0.35 0.35
-0.25 0.25
-0.25 0.25
ITEM: SURFS f_save[1] f_save[2] f_save[3] f_save[4] f_save[5] f_save[6] f_save[7] f_save[8] 
9.82645 -7.37291e-05 0 0 -9.82645 0 0 0 
0 0 0 0 0 0 0 0 
0 0 0 0 0 0 0 0 
0.738268 -1.68855e-05 0.000221573 5.3699e-06 0 0.738268 0 122.061 
0.535067 -5.04836e-05 0.000160575 -1.08212e-05 0 0.535067 0 381.016 
0.624942 -3.4107e-05 -0.000187561 2.84638e-06 0 -0.624942 0 225.162 
0.4111 -1.82162e-05 -0.000123372 -1.19055e-05 0 -0.4111 0 147.781 
0 0 0 0 0 0 0 0 
0 0 0 0 0 0 0 0 
0 0 0 0 0 0 0 0 
0.140963 -1.58389e-05 -1.21064e-06 8.24635e-05 0 0 0.140963 57.8348 
0.139396 2.90651e-06 1.82434e-06 8.15467e-05 0 0 0.139396 -0.660136 
0 0 0 0 0 0 0 0 
18.7022 -4.55868e-05 0 0 -18.7022 0 0 0 
0 0 0 0 0 0 0 0 
0 0 0 0 0 0 0 0 
0 0 0 0 0 0 0 0 
0 0 0 0 0 0 0 0 
19.9283 -4.85753e-05 0 0 -19.9283 0 0 0 
12.8242 -3.12589e-05 0 0 -12.8242 0 0 0 
0 0 0 0 0 0 0 0 
0 0 0 0 0 0 0 0 
17.4943 -4.1549e-05 0 0 -17.4943 0 0 0 
0 0 0 0 0 0 0 0 
0 0 0 0 0 0 0 0 
0 0 0 0 0 0 0 0 
0 0 0 0 0 0 0 0 
0 0 0 0 0 0 0 0 
0 0 0 0 0 0 0 0 
30.8175 -7.51178e-05 0 0 -30.8175 0 0 0 
0 0 0 0 0 0 0 0 
0 0 0 0 0 0 0 0 
22.2878 -5.29337e-05 2.93513e-06 -9.61477e-07 -22.2878 0 0 17731.1 
0 0 0 0 0 0 0 0 
0 0 0 0 0 0 0 0 
0 0 0 0 0 0 0 0 
0 0 0 0 0 0 0 0 
0 0 0 0 0 0 0 0 
17.1357 -4.06972e-05 0 0 -17.1357 0 0 0 
55.0413 -0.000130723 0 0 -55.0413 0 0 0 
0 0 0 0 0 0 0 0 
18.9495 -4.50052e-05 0 0 -18.9495 0 0 0 
18.83 -4.47214e-05 0 0 -18.83 0 0 0 
16.7169 -3.97028e-05 0 0 -16.7169 0 0 0 
0 0 0 0 0 0 0 0 
0 0 0 0 0 0 0 0 
38.8641 -9.47311e-05 -1.42023e-06 3.1465e-07 -38.8641 0 0 14550.2 
5.97599 -1.45664e-05 -1.86989e-06 -8.63795e-07 -5.97599 0 0 10711.1 
0 0 0 0 0 0 0 0 
17.7832 -4.33465e-05 0 0 -17.7832 0 0 0 
18.0503 -4.39978e-05 0 0 -18.0503 0 0 0 
11.1308 -2.71314e-05 0 0 -11.1308 0 0 0 
0 0 0 0 0 0 0 0 
0 0 0 0 0 0 0 0 
0 0 0 0 0 0 0 0 
0 0 0 0 0 0 0 0 
19.1885 -4.55727e-05 0 0 -19.1885 0 0 0 
0 0 0 0 0 0 0 0 
0 0 0 0 0 0 0 0 
38.3975 -9.11939e-05 0 0 -38.3975 0 0 0 
16.6938 -4.06911e-05 0 0 -16.6938 0 0 0 
16.0386 -3.90943e-05 0 0 -16.0386 0 0 0 
16.871 -4.11231e-05 0 0 -16.871 0 0 0 
37.2812 -9.08732e-05 0 0 -37.2812 0 0 0 
0 0 0 0 0 0 0 0 
0 0 0 0 0 0 0 0 
0 0 0 0 0 0 0 0 
0 0 0 0 0 0 0 0 
19.6119 -4.65784e-05 0 0 -19.6119 0 0 0 
0 0 0 0 0 0 0 0 
24.4528 -5.9604e-05 0 0 -24.4528 0 0 0 
0 0 0 0 0 0 0 0 
0 0 0 0 0 0 0 0 
0 0 0 0 0 0 0 0 
35.6218 -8.6828e-05 0 0 -35.6218 0 0 0 
8.47881 -2.0667e-05 -2.34528e-06 -3.86768e-08 -8.47881 0 0 13152.9 
22.3529 -5.44853e-05 -2.42709e-07 1.3195e-06 -22.3529 0 0 7274.37 
16.6097 -4.04862e-05 0 0 -16.6097 0 0 0 
7.34299 -1.74396e-05 0 0 -7.34299 0 0 0 
36.4567 -8.65846e-05 0 0 -36.4567 0 0 0 
0 0 0 0 0 0 0 0 
0 0 0 0 0 0 0 0 
17.9896 -4.27254e-05 0 0 -17.9896 0 0 0 
13.0655 -3.10306e-05 0 0 -13.0655 0 0 0 
0 0 0 0 0 0 0 0 
18.1189 -4.30325e-05 0 0 -18.1189 0 0 0 
0 0 0 0 0 0 0 0 
18.6517 -4.42977e-05 0 0 -18.6517 0 0 0 
0 0 0 0 0 0 0 0 
16.5099 -4.0243e-05 0 0 -16.5099 0 0 0 
0 0 0 0 0 0 0 0 
0 0 0 0 0 0 0 0 
0 0 0 0 0 0 0 0 
0 0 0 0 0 0 0 0 
17.8715 -4.35618e-05 0 0 -17.8715 0 0 0 
34.1665 -8.32809e-05 3.87165e-06 2.27734e-06 -34.1665 0 0 28557.5 
30.0941 -7.14737e-05 0 0 -30.0941 0 0 0 
6.33233 -1.50393e-05 2.18909e-06 -1.00018e-06 -6.33233 0 0 7944.41 
0 0 0 0 0 0 0 0 
0 0 0 0 0 0 0 0 
0 0 0 0 0 0 0 0 
29.5047 -7.00737e-05 -6.69493e-07 7.22691e-07 -29.5047 0 0 19870.8 
0 0 0 0 0 0 0 0 
17.7024 -4.20432e-05 0 0 -17.7024 0 0 0 
0 0 0 0 0 0 0 0 
0 0 0 0 0 0 0 0 
9.80565 -2.32884e-05 9.67747e-07 -6.92336e-07 -9.80565 0 0 17178.2 
0 0 0 0 0 0 0 0 
0 0 0 0 0 0 0 0 
0 0 0 0 0 0 0 0 
0 0 0 0 0 0 0 0 
0 0 0 0 0 0 0 0 
0 0 0 0 0 0 0 0 
19.1296 -4.5433e-05 0 0 -19.1296 0 0 0 
0 0 0 0 0 0 0 0 
0 0 0 0 0 0 0 0 
0 0 0 0 0 0 0 0 
0 0 0 0 0 0 0 0 
15.6731 -3.72236e-05 0 0 -15.6731 0 0 0 
0 0 0 0 0 0 0 0 
0 0 0 0 0 0 0 0 
0 0 0 0 0 0 0 0 
0 0 0 0 0 0 0 0 
0 0 0 0 0 0 0 0 
9.4797 -2.25143e-05 -1.04604e-06 -3.12567e-06 -9.4797 0 0 15180.2 
13.0326 -3.09525e-05 0 0 -13.0326 0 0 0 
0 0 0 0 0 0 0 0 
0 0 0 0 0 0 0 0 
0 0 0 0 0 0 0 0 
0 0 0 0 0 0 0 0 
0 0 0 0 0 0 0 0 
0 0 0 0 0 0 0 0 
18.8758 -4.60099e-05 0 0 -18.8758 0 0 0 
16.2279 -3.95556e-05 0 0 -16.2279 0 0 0 
0 0 0 0 0 0 0 0 
0 0 0 0 0 0 0 0 
0 0 0 0 0 0 0 0 
19.1746 -4.55398e-05 0 0 -19.1746 0 0 0 
0 0 0 0 0 0 0 0 
17.6711 -4.30732e-05 0 0 -17.6711 0 0 0 
0 0 0 0 0 0 0 0 
0 0 0 0 0 0 0 0 
28.766 -6.83195e-05 9.68143e-08 4.79435e-07 -28.766 0 0 15430.4 
0 0 0 0 0 0 0 0 
0 0 0 0 0 0 0 0 
9.6705 -2.35719e-05 -2.75991e-07 -4.39647e-06 -9.6705 0 0 16020.8 
0 0 0 0 0 0 0 0 
0 0 0 0 0 0 0 0 
14.8257 -3.52112e-05 0 0 -14.8257 0 0 0 
18.0083 -4.27699e-05 0 0 -18.0083 0 0 0 
50.2332 -0.000122443 0 0 -50.2332 0 0 0 
21.4162 -5.22021e-05 6.78668e-07 -1.41665e-06 -21.4162 0 0 15554.1 
0 0 0 0 0 0 0 0 
0 0 0 0 0 0 0 0 
0 0 0 0 0 0 0 0 
0 0 0 0 0 0 0 0 
17.218 -4.08927e-05 0 0 -17.218 0 0 0 
5.34658 -1.26981e-05 0 0 -5.34658 0 0 0 
0 0 0 0 0 0 0 0 
0 0 0 0 0 0 0 0 
18.0572 -4.40142e-05 0 0 -18.0572 0 0 0 
16.6333 -4.05436e-05 0 0 -16.6333 0 0 0 
0 0 0 0 0 0 0 0 
0 0 0 0 0 0 0 0 
0 0 0 0 0 0 0 0 
0 0 0 0 0 0 0 0 
0 0 0 0 0 0 0 0 
0 0 0 0 0 0 0 0 
4.59133 -1.09045e-05 2.46783e-06 -4.92179e-07 -4.59133 0 0 8581.45 
0 0 0 0 0 0 0 0 
0 0 0 0 0 0 0 0 
0 0 0 0 0 0 0 0 
16.7307 -4.0781e-05 0 0 -16.7307 0 0 0 
0 0 0 0 0 0 0 0 
21.4889 -5.10361e-05 1.45745e-06 -1.21998e-06 -21.4889 0 0 16431 
11.422 -2.71273e-05 0 0 -11.422 0 0 0 
0 0 0 0 0 0 0 0 
0 0 0 0 0 0 0 0 
9.34546 -2.21955e-05 -1.44401e-06 2.4939e-07 -9.34546 0 0 15078.9 
0 0 0 0 0 0 0 0 
19.8033 -4.70331e-05 0 0 -19.8033 0 0 0 
0 0 0 0 0 0 0 0 
0 0 0 0 0 0 0 0 
0 0 0 0 0 0 0 0 
0 0 0 0 0 0 0 0 
0 0 0 0 0 0 0 0 
18.7897 -4.46254e-05 0 0 -18.7897 0 0 0 
18.9576 -4.50242e-05 0 0 -18.9576 0 0 0 
0 0 0 0 0 0 0 0 
0 0 0 0 0 0 0 0 
0 0 0 0 0 0 0 0 
10.5143 -2.49717e-05 1.27678e-06 7.94567e-07 -10.5143 0 0 17645.2 
0 0 0 0 0 0 0 0 
0 0 0 0 0 0 0 0 
52.4527 -0.000124575 0 0 -52.4527 0 0 0 
0 0 0 0 0 0 0 0 
0 0 0 0 0 0 0 0 
0 0 0 0 0 0 0 0 
0 0 0 0 0 0 0 0 
0 0 0 0 0 0 0 0 
16.8326 -3.99776e-05 0 0 -16.8326 0 0 0 
0 0 0 0 0 0 0 0 
0 0 0 0 0 0 0 0 
0 0 0 0 0 0 0 0 
0 0 0 0 0 0 0 0 
0 0 0 0 0 0 0 0 
0 0 0 0 0 0 0 0 
0 0 0 0 0 0 0 0 
0 0 0 0 0 0 0 0 
0 0 0 0 0 0 0 0 
0 0 0 0 0 0 0 0 
18.0264 -4.28126e-05 0 0 -18.0264 0 0 0 
0 0 0 0 0 0 0 0 
0 0 0 0 0 0 0 0 
19.2458 -4.57087e-05 0 0 -19.2458 0 0 0 
17.5133 -4.1594e-05 0 0 -17.5133 0 0 0 
0 0 0 0 0 0 0 0 
0 0 0 0 0 0 0 0 
0 0 0 0 0 0 0 0 
0 0 0 0 0 0 0 0 
10.0875 -2.39578e-05 -6.03074e-06 9.18018e-07 -10.0875 0 0 18242.7 
0 0 0 0 0 0 0 0 
0 0 0 0 0 0 0 0 
0 0 0 0 0 0 0 0 
0 0 0 0 0 0 0 0 
45.0542 -0.000107004 3.60275e-07 -5.66199e-07 -45.0542 0 0 14044.9 
20.151 -4.78588e-05 0 0 -20.151 0 0 0 
0 0 0 0 0 0 0 0 
0 0 0 0 0 0 0 0 
0 0 0 0 0 0 0 0 
38.3202 -9.10106e-05 0 0 -38.3202 0 0 0 
0 0 0 0 0 0 0 0 
17.4637 -4.14765e-05 0 0 -17.4637 0 0 0 
9.73938 -2.31311e-05 -2.63677e-06 1.50015e-06 -9.73938 0 0 15743.5 
0 0 0 0 0 0 0 0 
0 0 0 0 0 0 0 0 
0 0 0 0 0 0 0 0 
0 0 0 0 0 0 0 0 
0 0 0 0 0 0 0 0 
0 0 0 0 0 0 0 0 
19.4519 -4.61984e-05 0 0 -19.4519 0 0 0 
0 0 0 0 0 0 0 0 
0 0 0 0 0 0 0 0 
7.40123 -1.80405e-05 -4.30969e-06 4.44566e-06 -7.40123 0 0 12354.9 
0 0 0 0 0 0 0 0 
0 0 0 0 0 0 0 0 
18.95 -4.50065e-05 -4.22832e-08 -1.42388e-07 -18.95 0 0 5082.28 
0 0 0 0 0 0 0 0 
0 0 0 0 0 0 0 0 
18.5786 -4.41242e-05 0 0 -18.5786 0 0 0 
0 0 0 0 0 0 0 0 
0 0 0 0 0 0 0 0 
0 0 0 0 0 0 0 0 
16.371 -3.99045e-05 0 0 -16.371 0 0 0 
12.4526 -2.9575e-05 0 0 -12.4526 0 0 0 
0 0 0 0 0 0 0 0 
0 0 0 0 0 0 0 0 
0 0 0 0 0 0 0 0 
17.6063 -4.1815e-05 0 0 -17.6063 0 0 0 
0 0 0 0 0 0 0 0 
17.1168 -4.06523e-05 0 0 -17.1168 0 0 0 
0 0 0 0 0 0 0 0 
0 0 0 0 0 0 0 0 
0 0 0 0 0 0 0 0 
0 0 0 0 0 0 0 0 
26.563 -6.3087e-05 -1.50291e-06 2.47173e-06 -26.563 0 0 16452 
0 0 0 0 0 0 0 0 
0 0 0 0 0 0 0 0 
0 0 0 0 0 0 0 0 
0 0 0 0 0 0 0 0 
15.5808 -3.70045e-05 0 0 -15.5808 0 0 0 
18.7044 -4.4423e-05 0 0 -18.7044 0 0 0 
18.3296 -4.35331e-05 0 0 -18.3296 0 0 0 
0 0 0 0 0 0 0 0 
0 0 0 0 0 0 0 0 
0 0 0 0 0 0 0 0 
0 0 0 0 0 0 0 0 
0 0 0 0 0 0 0 0 
0 0 0 0 0 0 0 0 
37.7043 -8.9548e-05 0 0 -37.7043 0 0 0 
0 0 0 0 0 0 0 0 
0 0 0 0 0 0 0 0 
0 0 0 0 0 0 0 0 
0 0 0 0 0 0 0 0 
17.4626 -4.14736e-05 0 0 -17.4626 0 0 0 
9.89007 -2.34889e-05 6.57187e-07 1.34721e-06 -9.89007 0 0 16260.9 
0 0 0 0 0 0 0 0 
0 0 0 0 0 0 0 0 
12.0551 -2.86309e-05 0 0 -12.0551 0 0 0 
53.9025 -0.000128019 0 0 -53.9025 0 0 0 
0 0 0 0 0 0 0 0 
0 0 0 0 0 0 0 0 
0 0 0 0 0 0 0 0 
0 0 0 0 0 0 0 0 
0 0 0 0 0 0 0 0 
0 0 0 0 0 0 0 0 
0 0 0 0 0 0 0 0 
0 0 0 0 0 0 0 0 
0 0 0 0 0 0 0 0 
17.6783 -4.1986e-05 0 0 -17.6783 0 0 0 
0 0 0 0 0 0 0 0 
0 0 0 0 0 0 0 0 
209.908 -2.62386e-05 -1.01851e-06 -1.8038e-06 -209.908 0 0 342336 
0 0 0 0 0 0 0 0 
10.3761 -2.46433e-05 -8.81397e-07 1.49273e-06 -10.3761 0 0 15893.8 
0 0 0 0 0 0 0 0 
0 0 0 0 0 0 0 0 
17.418 -4.13678e-05 0 0 -17.418 0 0 0 
0 0 0 0 0 0 0 0 
0 0 0 0 0 0 0 0 
12.5989 -2.99223e-05 0 0 -12.5989 0 0 0 
12.4238 -2.95064e-05 0 0 -12.4238 0 0 0 
0 0 0 0 0 0 0 0 
0 0 0 0 0 0 0 0 
0 0 0 0 0 0 0 0 
0 0 0 0 0 0 0 0 
16.8039 -3.99093e-05 0 0 -16.8039 0 0 0 
0 0 0 0 0 0 0 0 
0 0 0 0 0 0 0 0 
0 0 0 0 0 0 0 0 
0 0 0 0 0 0 0 0 
47.7845 -0.000113488 1.31895e-06 -2.23326e-06 -47.7845 0 0 16474.3 
0 0 0 0 0 0 0 0 
0 0 0 0 0 0 0 0 
18.9383 -4.49783e-05 0 0 -18.9383 0 0 0 
17.2543 -4.09789e-05 0 0 -17.2543 0 0 0 
0 0 0 0 0 0 0 0 
0 0 0 0 0 0 0 0 
0 0 0 0 0 0 0 0 
0 0 0 0 0 0 0 0 
0 0 0 0 0 0 0 0 
0 0 0 0 0 0 0 0 
18.399 -4.48477e-05 0 0 -18.399 0 0 0 
0 0 0 0 0 0 0 0 
7.96022 -0.00392382 3.66672e-06 -1.4715e-05 -7.96022 0 0 1507.96 
6.97542 -0.000340052 0 0 -6.97542 0 0 0 
0 0 0 0 0 0 0 0 
9.89555 -0.000470039 2.81907e-07 3.95712e-06 -9.89555 0 0 803.853 
0 0 0 0 0 0 0 0 
6.3872 -0.000303392 5.03175e-06 -5.12027e-06 -6.3872 0 0 1393.09 
0 0 0 0 0 0 0 0 
9.23455 -0.000438641 2.54222e-06 2.05557e-06 -9.23455 0 0 1589.98 
35.4638 -8.86594e-05 0 0 -35.4638 0 0 0 
7.46155 -0.000354424 0 0 -7.46155 0 0 0 
1.33836 -3.34591e-06 0 0 -1.33836 0 0 0 
9.6587 -0.000458788 7.00102e-06 2.76676e-06 -9.6587 0 0 2478.1 
0 0 0 0 0 0 0 0 
7.5853 -0.000360302 1.57172e-06 1.11615e-06 -7.5853 0 0 708.067 
33.595 -8.3988e-05 0 0 -33.595 0 0 3.05913e-11 
7.5794 -0.000369496 1.91173e-06 5.82523e-07 -7.5794 0 0 2154.02 
8.27174 -0.00360946 2.29572e-07 -1.04527e-05 -8.27174 0 0 1117.49 
7.58536 -0.000528782 -6.37008e-06 4.9547e-06 -7.58536 0 0 871.656 
10.9074 -0.00093804 -6.83991e-06 -2.11648e-06 -10.9074 0 0 2365.66 
11.8116 -0.0010158 -5.72847e-06 -4.58944e-06 -11.8116 0 0 1151.78 
9.90671 -0.000482952 -5.74104e-06 1.07806e-06 -9.90671 0 0 2101.22 
0 0 0 0 0 0 0 0 
7.85183 -0.000372962 -2.18025e-06 -4.02237e-06 -7.85183 0 0 2045.42 
0 0 0 0 0 0 0 0 
3.95319 -0.000187776 7.27436e-07 2.68041e-07 -3.95319 0 0 1040.18 
0 0 0 0 0 0 0 0 
10.0944 -0.000479484 7.10838e-07 -3.73984e-06 -10.0944 0 0 1823.91 
16.6272 -4.15681e-05 0 0 -16.6272 0 0 0 
6.91251 -0.000328344 1.29143e-06 2.79728e-06 -6.91251 0 0 800.007 
0 0 0 0 0 0 0 0 
13.1741 -0.000625769 1.14745e-06 -6.21617e-06 -13.1741 0 0 1512.14 
0 0 0 0 0 0 0 0 
5.10784 -0.000242623 -1.08748e-06 2.54568e-06 -5.10784 0 0 1038.38 
0 0 0 0 0 0 0 0 
3.8318 -0.0001868 -3.46682e-08 3.27205e-06 -3.8318 0 0 771.52 
11.5255 -0.000561867 1.68993e-05 -5.63729e-06 -11.5255 0 0 1332.45 
9.98781 -0.00492328 1.10395e-06 -3.49308e-06 -9.98781 0 0 2061.4 
7.03417 -0.000604937 -3.11446e-08 -3.12707e-06 -7.03417 0 0 1375.52 
7.81816 -0.000672362 2.17571e-06 3.27985e-06 -7.81816 0 0 823.481 
6.24715 -8.2101e-05 1.07012e-06 -7.08325e-07 -6.24715 0 0 5619.89 
7.0596 -0.000344155 3.04956e-06 -8.31362e-07 -7.0596 0 0 2356.64 
0 0 0 0 0 0 0 0 
6.41809 -0.000304859 -6.12218e-06 -2.44889e-06 -6.41809 0 0 3876.04 
9.36432 -2.34108e-05 -1.8582e-06 2.71393e-07 -9.36432 0 0 14736.8 
6.25527 -0.000297125 -8.52025e-07 3.38781e-06 -6.25527 0 0 4857.22 
0 0 0 0 0 0 0 0 
6.12041 -0.000290719 9.44558e-07 -9.44209e-07 -6.12041 0 0 320.042 
19.1803 -4.79508e-05 0 0 -19.1803 0 0 0 
12.609 -0.000598929 -2.55508e-06 -1.36827e-06 -12.609 0 0 708.694 
16.0422 -4.01057e-05 0 0 -16.0422 0 0 1.28806e-11 
14.4758 -0.000687602 -8.59911e-06 -3.00303e-06 -14.4758 0 0 3917.74 
0 0 0 0 0 0 0 0 
9.62272 -0.000457079 -2.42947e-08 1.59088e-06 -9.62272 0 0 2425.6 
0 0 0 0 0 0 0 0 
4.94864 -0.000241246 -7.38996e-06 5.37181e-06 -4.94864 0 0 782.256 
8.54565 -0.0042124 8.88032e-06 7.61413e-06 -8.54565 0 0 1206.75 
0 0 0 0 0 0 0 0 
9.90641 -0.000470554 1.08528e-06 -2.27791e-06 -9.90641 0 0 826.906 
16.6671 -4.16678e-05 0 0 -16.6671 0 0 0 
10.2497 -0.00048686 -7.47641e-06 2.1941e-06 -10.2497 0 0 616.743 
15.7042 -3.92606e-05 0 0 -15.7042 0 0 1.28806e-11 
7.26426 -0.000345052 4.27593e-06 -2.82323e-06 -7.26426 0 0 3250.86 
0 0 0 0 0 0 0 0 
10.5527 -0.000501252 0 0 -10.5527 0 0 0 
33.8984 -8.47463e-05 0 0 -33.8984 0 0 0 
5.89938 -0.00028022 -9.11512e-07 -1.85911e-06 -5.89938 0 0 1014.11 
9.46235 -2.36558e-05 -2.58916e-06 -1.33163e-06 -9.46235 0 0 17260.8 
4.36353 -0.000207268 2.64616e-06 2.01601e-06 -4.36353 0 0 1436.72 
13.5168 -3.37922e-05 0 0 -13.5168 0 0 1.12705e-11 
7.24496 -0.000353192 2.66265e-06 -1.24364e-06 -7.24496 0 0 783.357 
0.0296484 -2.27123e-05 1.73443e-05 1.48146e-06 0 0.0296484 0 62.6528 
0.0596487 0 1.74473e-05 0 0 0.0596487 0 0 
0 0 0 0 0 0 0 0 
0 0 0 0 0 0 0 0 
0 0 0 0 0 0 0 0 
0 0 0 0 0 0 0 0 
0 0 0 0 0 0 0 0 
0 0 0 0 0 0 0 0 
0 0 0 0 0 0 0 0 
0 0 0 0 0 0 0 0 
0 0 0 0 0 0 0 0 
0 0 0 0 0 0 0 0 
0 0 0 0 0 0 0 0 
0 0 0 0 0 0 0 0 
0 0 0 0 0 0 0 0 
0 0 0 0 0 0 0 0 
0 0 0 0 0 0 0 0 
0 0 0 0 0 0 0 0 
0 0 0 0 0 0 0 0 
0 0 0 0 0 0 0 0 
0 0 0 0 0 0 0 0 
0 0 0 0 0 0 0 0 
0 0 0 0 0 0 0 0 
0 0 0 0 0 0 0 0 
0 0 0 0 0 0 0 0 
0 0 0 0 0 0 0 0 
0 0 0 0 0 0 0 0 
0 0 0 0 0 0 0 0 
9.31089 2.21134e-05 -6.9534e-07 -1.57876e-06 9.31089 0 0 13328.9 
0 0 0 0 0 0 0 0 
0 0 0 0 0 0 0 0 
0 0 0 0 0 0 0 0 
0 0 0 0 0 0 0 0 
0 0 0 0 0 0 0 0 
0 0 0 0 0 0 0 0 
0 0 0 0 0 0 0 0 
0 0 0 0 0 0 0 0 
0 0 0 0 0 0 0 0 
0 0 0 0 0 0 0 0 
0 0 0 0 0 0 0 0 
0 0 0 0 0 0 0 0 
0 0 0 0 0 0 0 0 
0 0 0 0 0 0 0 0 
0 0 0 0 0 0 0 0 
0 0 0 0 0 0 0 0 
0 0 0 0 0 0 0 0 
0 0 0 0 0 0 0 0 
0 0 0 0 0 0 0 0 
0 0 0 0 0 0 0 0 
0 0 0 0 0 0 0 0 
0 0 0 0 0 0 0 0 
0 0 0 0 0 0 0 0 
0 0 0 0 0 0 0 0 
0 0 0 0 0 0 0 0 
0 0 0 0 0 0 0 0 
0 0 0 0 0 0 0 0 
0 0 0 0 0 0 0 0 
0 0 0 0 0 0 0 0 
0 0 0 0 0 0 0 0 
0 0 0 0 0 0 0 0 
0 0 0 0 0 0 0 0 
0 0 0 0 0 0 0 0 
0 0 0 0 0 0 0 0 
0 0 0 0 0 0 0 0 
0 0 0 0 0 0 0 0 
0 0 0 0 0 0 0 0 
0 0 0 0 0 0 0 0 
0 0 0 0 0 0 0 0 
0 0 0 0 0 0 0 0 
0 0 0 0 0 0 0 0 
0 0 0 0 0 0 0 0 
0 0 0 0 0 0 0 0 
0 0 0 0 0 0 0 0 
0 0 0 0 0 0 0 0 
0 0 0 0 0 0 0 0 
0 0 0 0 0 0 0 0 
0 0 0 0 0 0 0 0 
0 0 0 0 0 0 0 0 
0 0 0 0 0 0 0 0 
0 0 0 0 0 0 0 0 
0 0 0 0 0 0 0 0 
0 0 0 0 0 0 0 0 
0 0 0 0 0 0 0 0 
0 0 0 0 0 0 0 0 
0 0 0 0 0 0 0 0 
0 0 0 0 0 0 0 0 
0 0 0 0 0 0 0 0 
0 0 0 0 0 0 0 0 
0 0 0 0 0 0 0 0 
0 0 0 0 0 0 0 0 
0 0 0 0 0 0 0 0 
0 0 0 0 0 0 0 0 
0 0 0 0 0 0 0 0 
0 0 0 0 0 0 0 0 
0 0 0 0 0 0 0 0 
0 0 0 0 0 0 0 0 
0 0 0 0 0 0 0 0 
0 0 0 0 0 0 0 0 
0 0 0 0 0 0 0 0 
0 0 0 0 0 0 0 0 
0 0 0 0 0 0 0 0 
0 0 0 0 0 0 0 0 
0 0 0 0 0 0 0 0 
0 0 0 0 0 0 0 0 
0 0 0 0 0 0 0 0 
0 0 0 0 0 0 0 0 
0 0 0 0 0 0 0 0 
0 0 0 0 0 0 0 0 
0 0 0 0 0 0 0 0 
0 0 0 0 0 0 0 0 
0 0 0 0 0 0 0 0 
0 0 0 0 0 0 0 0 
0 0 0 0 0 0 0 0 
0 0 0 0 0 0 0 0 
0 0 0 0 0 0 0 0 
0 0 0 0 0 0 0 0 
0 0 0 0 0 0 0 0 
0 0 0 0 0 0 0 0 
0 0 0 0 0 0 0 0 
0 0 0 0 0 0 0 0 
0 0 0 0 0 0 0 0 
0 0 0 0 0 0 0 0 
0 0 0 0 0 0 0 0 
0 0 0 0 0 0 0 0 
0 0 0 0 0 0 0 0 
0 0 0 0 0 0 0 0 
0 0 0 0 0 0 0 0 
0 0 0 0 0 0 0 0 
0 0 0 0 0 0 0 0 
0 0 0 0 0 0 0 0 
0 0 0 0 0 0 0 0 
0 0 0 0 0 0 0 0 
0 0 0 0 0 0 0 0 
0 0 0 0 0 0 0 0 
0 0 0 0 0 0 0 0 
0 0 0 0 0 0 0 0 
0 0 0 0 0 0 0 0 
17.1573 4.07487e-05 0 0 17.1573 0 0 0 
0 0 0 0 0 0 0 0 
0 0 0 0 0 0 0 0 
0 0 0 0 0 0 0 0 
0 0 0 0 0 0 0 0 
0 0 0 0 0 0 0 0 
0 0 0 0 0 0 0 0 
0 0 0 0 0 0 0 0 
0 0 0 0 0 0 0 0 
0 0 0 0 0 0 0 0 
0 0 0 0 0 0 0 0 
0 0 0 0 0 0 0 0 
0 0 0 0 0 0 0 0 
0 0 0 0 0 0 0 0 
0 0 0 0 0 0 0 0 
0 0 0 0 0 0 0 0 
0 0 0 0 0 0 0 0 
0 0 0 0 0 0 0 0 
0 0 0 0 0 0 0 0 
0 0 0 0 0 0 0 0 
0 0 0 0 0 0 0 0 
0 0 0 0 0 0 0 0 
0 0 0 0 0 0 0 0 
0 0 0 0 0 0 0 0 
0 0 0 0 0 0 0 0 
0 0 0 0 0 0 0 0 
0 0 0 0 0 0 0 0 
0 0 0 0 0 0 0 0 
0 0 0 0 0 0 0 0 
0 0 0 0 0 0 0 0 
0 0 0 0 0 0 0 0 
0 0 0 0 0 0 0 0 
0 0 0 0 0 0 0 0 
0 0 0 0 0 0 0 0 
0 0 0 0 0 0 0 0 
0 0 0 0 0 0 0 0 
0 0 0 0 0 0 0 0 
0 0 0 0 0 0 0 0 
0 0 0 0 0 0 0 0 
0 0 0 0 0 0 0 0 
0 0 0 0 0 0 0 0 
0 0 0 0 0 0 0 0 
0 0 0 0 0 0 0 0 
0 0 0 0 0 0 0 0 
0 0 0 0 0 0 0 0 
0 0 0 0 0 0 0 0 
0 0 0 0 0 0 0 0 
0 0 0 0 0 0 0 0 
0 0 0 0 0 0 0 0 
0 0 0 0 0 0 0 0 
0 0 0 0 0 0 0 0 
0 0 0 0 0 0 0 0 
0 0 0 0 0 0 0 0 
0 0 0 0 0 0 0 0 
0 0 0 0 0 0 0 0 
0 0 0 0 0 0 0 0 
0 0 0 0 0 0 0 0 
0 0 0 0 0 0 0 0 
0 0 0 0 0 0 0 0 
0 0 0 0 0 0 0 0 
0 0 0 0 0 0 0 0 
0 0 0 0 0 0 0 0 
0 0 0 0 0 0 0 0 
0 0 0 0 0 0 0 0 
0 0 0 0 0 0 0 0 
0 0 0 0 0 0 0 0 
0 0 0 0 0 0 0 0 
0 0 0 0 0 0 0 0 
0 0 0 0 0 0 0 0 
0 0 0 0 0 0 0 0 
0 0 0 0 0 0 0 0 
0 0 0 0 0 0 0 0 
0 0 0 0 0 0 0 0 
0 0 0 0 0 0 0 0 
0 0 0 0 0 0 0 0 
0 0 0 0 0 0 0 0 
0 0 0 0 0 0 0 0 
0 0 0 0 0 0 0 0 
0 0 0 0 0 0 0 0 
0 0 0 0 0 0 0 0 
0 0 0 0 0 0 0 0 
0 0 0 0 0 0 0 0 
0 0 0 0 0 0 0 0 
0 0 0 0 0 0 0 0 
0 0 0 0 0 0 0 0 
0 0 0 0 0 0 0 0 
0 0 0 0 0 0 0 0 
0 0 0 0 0 0 0 0 
0 0 0 0 0 0 0 0 
0 0 0 0 0 0 0 0 
0 0 0 0 0 0 0 0 
0 0 0 0 0 0 0 0 
0 0 0 0 0 0 0 0 
0 0 0 0 0 0 0 0 
0 0 0 0 0 0 0 0 
0 0 0 0 0 0 0 0 
0 0 0 0 0 0 0 0 
0 0 0 0 0 0 0 0 
0 0 0 0 0 0 0 0 
0 0 0 0 0 0 0 0 
0 0 0 0 0 0 0 0 
0 0 0 0 0 0 0 0 
0 0 0 0 0 0 0 0 
0 0 0 0 0 0 0 0 
0 0 0 0 0 0 0 0 
0 0 0 0 0 0 0 0 
0 0 0 0 0 0 0 0 
0 0 0 0 0 0 0 0 
0 0 0 0 0 0 0 0 
0 0 0 0 0 0 0 0 
0 0 0 0 0 0 0 0 
0 0 0 0 0 0 0 0 
0 0 0 0 0 0 0 0 
0 0 0 0 0 0 0 0 
0 0 0 0 0 0 0 0 
0 0 0 0 0 0 0 0 
0 0 0 0 0 0 0 0 
0 0 0 0 0 0 0 0 
0 0 0 0 0 0 0 0 
0 0 0 0 0 0 0 0 
0 0 0 0 0 0 0 0 
0 0 0 0 0 0 0 0 
0 0 0 0 0 0 0 0 
0 0 0 0 0 0 0 0 
3.24335 7.90569e-06 0 0 3.24335 0 0 0 
0 0 0 0 0 0 0 0 
0 0 0 0 0 0 0 0 
0 0 0 0 0 0 0 0 
0 0 0 0 0 0 0 0 
0 0 0 0 0 0 0 0 
0 0 0 0 0 0 0 0 
0 0 0 0 0 0 0 0 
0 0 0 0 0 0 0 0 
0 0 0 0 0 0 0 0 
0 0 0 0 0 0 0 0 
0 0 0 0 0 0 0 0 
0 0 0 0 0 0 0 0 
0 0 0 0 0 0 0 0 
0 0 0 0 0 0 0 0 
0 0 0 0 0 0 0 0 
0 0 0 0 0 0 0 0 
0 0 0 0 0 0 0 0 
0 0 0 0 0 0 0 0 
0 0 0 0 0 0 0 0 
0 0 0 0 0 0 0 0 
0 0 0 0 0 0 0 0 
0 0 0 0 0 0 0 0 
0 0 0 0 0 0 0 0 
0 0 0 0 0 0 0 0 
0 0 0 0 0 0 0 0 
0 0 0 0 0 0 0 0 
0 0 0 0 0 0 0 0 
0 0 0 0 0 0 0 0 
0 0 0 0 0 0 0 0 
0 0 0 0 0 0 0 0 
0 0 0 0 0 0 0 0 
0 0 0 0 0 0 0 0 
0 0 0 0 0 0 0 0 
0 0 0 0 0 0 0 0 
0 0 0 0 0 0 0 0 
0 0 0 0 0 0 0 0 
0 0 0 0 0 0 0 0 
0 0 0 0 0 0 0 0 
0 0 0 0 0 0 0 0 
0 0 0 0 0 0 0 0 
0 0 0 0 0 0 0 0 
0 0 0 0 0 0 0 0 
0 0 0 0 0 0 0 0 
0 0 0 0 0 0 0 0 
0 0 0 0 0 0 0 0 
0 0 0 0 0 0 0 0 
0 0 0 0 0 0 0 0 
0 0 0 0 0 0 0 0 
0 0 0 0 0 0 0 0 
0 0 0 0 0 0 0 0 
0 0 0 0 0 0 0 0 
0 0 0 0 0 0 0 0 
0 0 0 0 0 0 0 0 
0 0 0 0 0 0 0 0 
0 0 0 0 0 0 0 0 
0 0 0 0 0 0 0 0 
0 0 0 0 0 0 0 0 
0 0 0 0 0 0 0 0 
0 0 0 0 0 0 0 0 
0 0 0 0 0 0 0 0 
18.1127 4.41497e-05 0 0 18.1127 0 0 0 
0 0 0 0 0 0 0 0 
0 0 0 0 0 0 0 0 
0 0 0 0 0 0 0 0 
0 0 0 0 0 0 0 0 
0 0 0 0 0 0 0 0 
0 0 0 0 0 0 0 0 
0.014186 0 -8.29881e-06 0 0 -0.014186 0 0 
0.0268136 0 -1.5686e-05 0 0 -0.0268136 0 0 
2.17946 -0.00026873 0.000262784 -0.000265187 -1.08973 1.33464 -1.33464 422.876 
1.8838 -0.000244099 0.000222246 -0.000224457 -0.941902 1.15358 -1.1536 527.682 
0.0311312 -0.000386411 0.000278343 0.000289594 0 0.0220131 0.0220131 50.6875 
0.0246572 -0.000790374 0.000507125 0.000491915 5.84913e-10 0.0174353 0.0174353 49.2661 
0.0218379 -0.000146853 9.58753e-05 9.56665e-05 0 0.0154418 0.0154418 43.8058 
0.0327558 -0.000315952 0.000484389 1.01577e-05 0 0.0327558 0 37.1535 
0.0214134 -0.000212367 0.000316658 -2.94833e-06 0 0.0214134 0 26.4564 
0.0298912 -0.000219033 -2.82839e-06 0.000442028 0 0 0.0298912 26.3274 
0.0192869 -0.000342552 1.12168e-05 0.000285212 0 0 0.0192869 44.5013 
0.0294842 -0.000854889 0.000596706 0.000597913 0 0.0208485 0.0208485 52.2027 
0.0226683 -0.00020497 0.000203313 0.000210232 -3.30924e-10 0.0160289 0.0160289 29.4249 
0.0198835 -9.11506e-05 8.53008e-05 8.90981e-05 0 0.0140597 0.0140597 26.8803 
2.12261 -0.000259694 -0.000257022 0.000258832 -1.0613 -1.29983 1.29983 398.874 
2.80017 -0.000382209 -0.000320395 0.000327789 -1.40009 -1.71474 1.71476 1132.04 
0.0245041 -0.000647882 -0.000505117 -0.000487723 0 -0.0173271 -0.017327 38.1781 
0.0236067 -0.000258347 -0.000220434 -0.000210233 1.24371e-09 -0.0166925 -0.0166925 33.1473 
0.030928 -0.000153712 -0.000135172 -0.000136099 0 -0.0218694 -0.0218694 41.1734 
0.0323598 -0.000226136 -0.000478533 8.60267e-06 0 -0.0323598 0 27.8907 
0.0203583 -0.000347555 -0.000301057 5.35591e-06 0 -0.0203583 0 40.3271 
0.0289832 -0.000280016 -2.15668e-05 -0.0004286 0 0 -0.0289832 35.0404 
0.0273963 -0.000318524 -4.28602e-06 -0.000405133 0 0 -0.0273963 40.3598 
0.0292815 -0.00024221 -0.000264641 -0.000269552 0 -0.0207052 -0.0207052 32.3447 
0.0260659 -0.000619815 -0.00052836 -0.000527758 -1.71335e-10 -0.0184314 -0.0184314 38.8913 
0.0241463 -0.000134176 -0.000102299 -0.000109489 0 -0.017074 -0.017074 41.3934 
0.224906 -3.78156e-05 4.22907e-06 -0.00013157 0 0 -0.224906 182.83 
0.171082 -1.62654e-05 2.39184e-06 -0.000100083 0 0 -0.171082 36.0354 
0.173766 -2.52557e-05 -9.90465e-05 -5.46638e-06 0 -0.173766 0 75.5164 
0.272776 -3.63764e-05 -0.000155482 -4.54103e-06 0 -0.272776 0 103.637 
0.255463 -3.39784e-05 -9.85991e-06 0.000149446 0 0 0.255463 95.746 
0.190387 -2.34093e-05 -1.74432e-06 0.000111376 0 0 0.190387 115.855 
0.206177 -3.54378e-05 0.000117521 -3.54312e-06 0 0.206177 0 107.376 
0.199537 -4.1061e-05 0.000113736 -1.08682e-05 0 0.199537 0 117.677 
0.0241741 0 1.37792e-05 0 0 0.0241741 0 6.62038e-16 
0.0400682 -2.48134e-05 2.28389e-05 4.27586e-07 0 0.0400682 0 77.1794 
0.0481524 -1.46152e-05 -7.17548e-06 -2.74468e-05 0 0 -0.0481524 71.7824 
0.0425307 -1.47732e-05 -1.43186e-06 -2.42425e-05 0 0 -0.0425307 43.5349 
0.0378662 -3.25967e-06 -2.15837e-05 -4.80114e-07 0 -0.0378662 0 1.09478 
0.0322907 7.37769e-06 -1.84057e-05 -6.26667e-06 0 -0.0322907 0 -2.55698 
0.0623251 2.66596e-07 1.62284e-06 3.55253e-05 0 -1.22197e-08 0.0623251 -0.970027 
0.0377674 0 -4.22074e-12 2.15274e-05 0 -7.4048e-09 0.0377674 1.32408e-14 
0.116174 -1.98e-05 6.62189e-05 1.331e-06 0 0.116174 0 53.1358 
0.0442523 -3.56799e-05 2.52238e-05 -2.47446e-06 0 0.0442523 0 165.788 
0.082888 -5.8243e-05 -1.31777e-06 -4.72461e-05 0 0 -0.082888 183.987 
0.0422993 3.79024e-06 3.86403e-06 -2.41106e-05 0 0 -0.0422993 1.46235 
0.0706089 0 -4.02471e-05 0 0 -0.0706089 0 1.52269e-14 
0.104116 -2.1377e-05 -5.9346e-05 -7.65021e-07 0 -0.104116 0 66.7709 
0.0669262 -4.75819e-06 3.27754e-06 3.81479e-05 0 0 0.0669262 21.8591 
0.0532502 0 0 3.03526e-05 0 0 0.0532502 2.75849e-15 
0.0953279 -1.05785e-05 -5.43369e-05 1.95874e-06 0 -0.0953279 0 32.4275 
0.0898994 -3.57265e-05 -5.12427e-05 -5.58646e-07 0 -0.0898994 0 118.352 
0.236107 -2.30622e-05 2.71739e-07 0.000134581 0 0 0.236107 63.1315 
0.15389 -4.3372e-05 -1.63454e-06 8.77171e-05 0 0 0.15389 133.08 
0.0930473 8.42151e-07 5.30369e-05 -1.34446e-07 0 0.0930473 0 -2.25595 
0.0588869 7.76757e-07 3.35655e-05 1.27531e-06 0 0.0588869 0 -1.72688 
0.108143 -4.62182e-05 1.7825e-05 -6.16417e-05 0 0 -0.108143 173.609 
0.282643 -3.58854e-05 -5.24373e-06 -0.000161107 0 0 -0.282643 96.6384 
0.143538 -4.09091e-05 8.18166e-05 -8.00821e-06 0 0.143538 0 149.981 
0.0847524 -1.6777e-05 4.83089e-05 1.8838e-07 0 0.0847524 0 43.4262 
0.0914789 -3.67559e-05 1.10683e-05 -5.2143e-05 0 0 -0.0914789 97.3072 
0.0827219 -1.88757e-06 7.29147e-06 -4.71515e-05 0 0 -0.0827219 1.5945 
0.254836 -1.3864e-05 -0.000145256 -7.01469e-06 0 -0.254836 0 45.4157 
0.0232717 -2.45701e-05 -1.32648e-05 1.76537e-06 0 -0.0232717 0 58.3985 
0.138332 -1.08803e-05 7.57141e-06 7.88491e-05 0 0 0.138332 27.107 
0.0897664 -3.86797e-05 -2.54319e-06 5.11668e-05 0 0 0.0897664 128.487 
0.215673 -1.74909e-05 0.000122934 -1.65677e-06 0 0.215673 0 66.7768 
0.0145524 1.41095e-06 8.29489e-06 -1.32275e-06 0 0.0145524 0 0.15741 
0.0921232 -2.61252e-05 1.69269e-05 -5.25103e-05 0 0 -0.0921232 139.496 
0.0677783 -3.11532e-05 9.41762e-06 -3.86337e-05 0 0 -0.0677783 112.143 
0.214507 -8.05609e-06 -0.000122269 -2.31774e-05 0 -0.214507 0 90.3631 
0.123606 -3.26081e-07 -7.04554e-05 8.60599e-07 0 -0.123606 0 1.37937 
0.193062 -2.72716e-05 -5.43842e-06 0.000110045 0 0 0.193062 83.3676 
0.117763 2.65075e-06 3.69873e-06 6.71249e-05 0 0 0.117763 1.04889 
0.112554 -1.0642e-05 3.32579e-06 -6.41559e-05 0 0 -0.112554 23.8648 
0.0788879 0 0 -4.49661e-05 0 0 -0.0788879 2.74746e-14 
0.0726318 -2.39452e-05 -4.14001e-05 -7.88981e-07 0 -0.0726318 0 61.5052 
0.0656553 -2.76092e-06 -3.74235e-05 -2.41414e-07 0 -0.0656553 0 -2.15409 
0.108086 -5.22489e-05 1.47706e-05 6.16089e-05 0 0 0.108086 173.138 
0.10098 -1.66322e-05 1.25787e-06 5.75586e-05 0 0 0.10098 47.9597 
0.068503 0 3.90467e-05 0 0 0.068503 0 2.20955e-14 
0.049581 2.83221e-06 2.82611e-05 1.62255e-06 0 0.049581 0 -0.696666 
0.145824 0 8.312e-05 0 0 0.145824 0 5.197e-14 
0.173528 -5.34279e-05 9.89112e-05 5.24387e-06 0 0.173528 0 141.231 
0.0650669 1.75865e-07 4.23422e-06 -3.70881e-05 0 0 -0.0650669 1.37813 
0.207454 5.08709e-07 3.34145e-07 -0.000118249 0 0 -0.207454 -0.480468 
0.240583 -2.72332e-06 -0.000137133 6.39032e-06 0 -0.240583 0 23.5554 
0.0916696 -4.62586e-05 -5.22517e-05 6.31616e-06 0 -0.0916696 0 134.721 
0.0874855 0 0 4.98667e-05 0 0 0.0874855 0 
0.200606 -4.34239e-05 3.50098e-06 0.000114345 0 0 0.200606 111.836 
0.131457 -1.76423e-05 5.80852e-07 -7.49306e-05 0 0 -0.131457 76.2921 
0.0702823 -2.40775e-05 1.54195e-06 -4.00609e-05 0 0 -0.0702823 78.6814 
0.206982 -2.00104e-05 -0.00011798 9.22661e-06 0 -0.206982 0 59.0582 
0.0811643 -2.86982e-05 -4.62636e-05 8.17846e-06 0 -0.0811643 0 94.6973 
0.102661 -2.70508e-06 -3.52626e-08 5.85169e-05 0 0 0.102661 1.9111 
0.0785775 -4.60171e-05 7.12398e-06 4.47892e-05 0 0 0.0785775 140.628 
0.131465 -2.88202e-05 7.49348e-05 4.06955e-06 0 0.131465 2.57754e-08 74.4254 
0.0533785 -2.27904e-06 3.04258e-05 -1.47479e-06 0 0.0533785 1.04656e-08 1.90279 
0.120437 -1.62237e-05 -2.75511e-06 -6.86491e-05 0 0 -0.120437 53.6567 
0.0999712 -3.81065e-05 -1.96295e-07 -5.69836e-05 0 0 -0.0999712 116.422 
0.0565303 -6.68267e-06 -3.22223e-05 -3.42918e-06 0 -0.0565303 -1.10841e-08 33.7278 
0.0969282 -2.05229e-05 -5.52491e-05 2.36219e-06 0 -0.0969282 -1.90051e-08 59.003 
0.147331 0 0 8.39788e-05 0 0 0.147331 3.77362e-14 
0.114575 -1.30686e-05 5.07364e-07 6.53079e-05 0 0 0.114575 38.6565 
0.101536 -2.56613e-05 5.78758e-05 4.37484e-06 0 0.101536 0 73.0478 
0.0839543 -1.04443e-06 4.78539e-05 4.42449e-07 0 0.0839543 0 1.04762 
0.086378 -4.7619e-05 -5.83804e-06 5.05311e-05 0 0 0.086378 154.672 
0.0177543 2.6588e-06 9.6774e-08 1.03863e-05 0 0 0.0177543 0.920014 
0.295375 -4.44649e-05 0.000168364 -1.17297e-06 0 0.295375 0 125.495 
0.0277164 -8.60746e-06 1.57984e-05 -4.47179e-06 0 0.0277164 0 22.1708 
0.0757124 -5.46995e-06 6.02157e-06 -4.42917e-05 0 0 -0.0757124 3.26713 
0.0276743 -2.32322e-05 8.44939e-07 -1.61895e-05 0 0 -0.0276743 72.4797 
0.0410976 -2.39644e-05 -2.34256e-05 -8.89929e-07 0 -0.0410976 0 67.5119 
0.260891 -1.76287e-05 -0.000148708 -1.14952e-07 0 -0.260891 0 53.03 
0.0990544 -3.66826e-05 -1.87924e-06 5.79468e-05 0 0 0.0990544 113.967 
0.0737892 -1.05839e-05 -1.02866e-06 4.31667e-05 0 0 0.0737892 12.022 
0.0316386 0 1.8034e-05 0 0 0.0316386 0 0 
0.0270524 -4.19619e-05 1.54199e-05 6.39766e-06 0 0.0270524 0 120.791 
0.0979754 -1.92315e-05 2.92665e-06 -5.73156e-05 0 0 -0.0979754 52.3579 
0.0902556 -3.1416e-07 -1.19861e-06 -5.27995e-05 0 0 -0.0902556 0.0365538 
0.0287674 0 -1.63974e-05 0 0 -0.0287674 0 0 
0.0331418 -1.01533e-05 -1.88908e-05 -8.95463e-06 0 -0.0331418 0 32.4638 
0.0443617 0 0 -2.52862e-05 0 0 -0.0443617 0 
0.0315786 -2.11617e-06 4.71475e-07 -1.79998e-05 0 0 -0.0315786 -0.809102 
0.125083 -2.26597e-05 -7.1297e-05 -1.27987e-05 0 -0.125083 0 81.0072 
0.040733 0 -2.32178e-05 0 0 -0.040733 0 0 
0.043954 -2.00189e-05 1.42326e-06 2.50538e-05 0 0 0.043954 60.437 
0.0234169 0 0 1.33476e-05 0 0 0.0234169 0 
0.0851069 -4.80019e-06 4.85109e-05 1.20844e-06 0 0.0851069 0 0.324243 
0.0542745 -4.26405e-05 3.09365e-05 -2.99845e-06 0 0.0542745 0 144.562 
0.0263365 1.43167e-06 1.38339e-06 1.54068e-05 0 0 0.0263365 0.803036 
0.0200823 -2.29595e-05 -1.29067e-06 1.17481e-05 0 0 0.0200823 56.0226 
0.0362145 0 2.11855e-05 0 0 0.0362145 0 0 
0.0309315 1.80207e-06 1.80949e-05 -3.47971e-06 0 0.0309315 0 -1.14968 
0.0268076 1.8958e-06 -5.17738e-08 -1.56824e-05 0 0 -0.0268076 -0.639569 
0.0069211 0 0 -2.02442e-06 0 0 -0.0069211 0 
0.0136272 0 0 -3.98597e-06 0 0 -0.0136272 0 
0.0464721 -3.20486e-05 -2.71862e-05 -5.7094e-06 0 -0.0464721 0 105.648 
0.0119844 0 -3.50542e-06 0 0 -0.0119844 0 0 
0.0232645 0 -6.80486e-06 0 0 -0.0232645 0 0 
0.103856 -8.74909e-05 6.43506e-06 6.07556e-05 0 0 0.103856 265.351 
0.0455662 0 0 2.66562e-05 0 0 0.0455662 0 
0.0534441 -2.43406e-05 3.04631e-05 2.45472e-07 0 0.0534441 0 72.3527 
0.0230228 -1.48707e-06 1.3123e-05 -3.12549e-06 0 0.0230228 0 -0.390845 
0.131672 7.04584e-07 5.72496e-06 -7.70279e-05 0 0 -0.131672 3.32387 
0.028578 0 0 -1.67181e-05 0 0 -0.028578 0 
0.0165586 0 -9.43842e-06 0 0 -0.0165586 0 0 
0.0576485 -2.78201e-05 -3.28596e-05 1.46001e-06 0 -0.0576485 0 83.0764 
0.161112 -5.03349e-06 1.54981e-06 -9.18336e-05 0 0 -0.161112 12.5392 
0.178233 -3.553e-05 3.7793e-06 -0.000101593 0 0 -0.178233 112.599 
0.113573 -1.99269e-05 -6.64404e-05 2.35126e-06 0 -0.113573 0 62.7483 
0.118354 -4.341e-05 -6.92373e-05 2.26874e-06 0 -0.118354 0 129.425 
0.0889712 -1.62135e-06 -2.65311e-06 5.07136e-05 0 0 0.0889712 2.07235 
0.189094 -5.83647e-05 6.66913e-06 0.000107783 0 0 0.189094 157.05 
0.1367 -6.41522e-05 7.99693e-05 -1.33084e-06 0 0.1367 0 172.323 
0.0934428 2.82573e-06 5.46641e-05 5.34271e-06 0 0.0934428 0 6.33586 
0.0947303 -6.58e-05 5.39963e-05 -8.29842e-07 0 0.0947303 0 223.878 
0.109583 -2.36158e-05 6.24623e-05 -7.41101e-06 0 0.109583 0 82.0661 
0.0905293 0 0 -5.16017e-05 0 0 -0.0905293 0 
0.0395015 -1.32176e-05 -1.85086e-06 -2.25159e-05 0 0 -0.0395015 38.0334 
0.114512 -8.29443e-06 -6.5272e-05 -3.38107e-06 0 -0.114512 0 33.0248 
0.0705772 8.27785e-06 -4.0229e-05 -1.22075e-05 0 -0.0705772 0 33.4092 
0.0249495 -2.29465e-06 5.10825e-06 1.42212e-05 0 0 0.0249495 5.24573 