ITEM: TIMESTEP
45
ITEM: NUMBER OF SURFS
6916
ITEM: BOX BOUNDS oo rr rr
-20 20
-20 20
-20 20
ITEM: SURFS f_save[1] f_save[2] f_save[3] f_save[4] f_save[5] f_save[6] f_save[7] f_save[8] 
0 0 0 0 0 0 0 0 
0 0 0 0 0 0 0 0 
0 0 0 0 0 0 0 0 
1.07848e-18 -2.6288e-20 0 0 -1.07848e-18 0 0 1.00423e-30 
1.29395e-18 -1.61744e-21 0 0 -1.29395e-18 0 0 0 
1.0489e-18 -1.31113e-21 0 0 -1.0489e-18 0 0 0 
1.09531e-18 -1.36913e-21 0 0 -1.09531e-18 0 0 0 
1.10502e-18 -2.69349e-20 0 0 -1.10502e-18 0 0 1.01081e-30 
1.03625e-18 -2.4611e-20 0 0 -1.03625e-18 0 0 0 
1.00157e-18 -2.37873e-20 0 0 -1.00157e-18 0 0 0 
1.14289e-18 -2.71438e-20 0 0 -1.14289e-18 0 0 0 
1.12677e-18 -2.67608e-20 0 0 -1.12677e-18 0 0 0 
1.13289e-18 -2.76142e-20 0 0 -1.13289e-18 0 0 0 
1.14468e-18 -2.71862e-20 0 0 -1.14468e-18 0 0 0 
1.02738e-18 -2.44002e-20 0 0 -1.02738e-18 0 0 0 
1.1271e-18 -2.74731e-20 0 0 -1.1271e-18 0 0 0 
9.43493e-19 -2.29976e-20 0 0 -9.43493e-19 0 0 8.78357e-31 
1.25791e-18 -2.98756e-20 0 0 -1.25791e-18 0 0 1.16209e-30 
1.03132e-18 -2.44939e-20 0 0 -1.03132e-18 0 0 0 
1.04413e-18 -2.54506e-20 0 0 -1.04413e-18 0 0 9.74818e-31 
1.0392e-18 -2.4681e-20 0 0 -1.0392e-18 0 0 0 
1.00268e-18 -2.38137e-20 0 0 -1.00268e-18 0 0 0 
1.10826e-18 -2.70139e-20 0 0 -1.10826e-18 0 0 0 
1.02603e-18 -2.43682e-20 0 0 -1.02603e-18 0 0 0 
1.0771e-18 -2.55811e-20 0 0 -1.0771e-18 0 0 0 
1.14091e-18 -2.70966e-20 0 0 -1.14091e-18 0 0 0 
9.91423e-19 -1.23928e-21 0 0 -9.91423e-19 0 0 0 
1.04839e-18 -2.48992e-20 0 0 -1.04839e-18 0 0 0 
1.09596e-18 -2.60291e-20 0 0 -1.09596e-18 0 0 0 
9.28855e-19 -1.16107e-21 0 0 -9.28855e-19 0 0 0 
1.00133e-18 -2.37815e-20 0 0 -1.00133e-18 0 0 0 
1.13619e-18 -2.69846e-20 0 0 -1.13619e-18 0 0 0 
1.98602e-18 -2.48253e-21 0 0 -1.98602e-18 0 0 0 
1.07954e-18 -2.63139e-20 0 0 -1.07954e-18 0 0 9.94352e-31 
1.15828e-18 -2.75093e-20 0 0 -1.15828e-18 0 0 0 
1.21138e-18 -1.51423e-21 0 0 -1.21138e-18 0 0 0 
1.10724e-18 -2.69889e-20 0 0 -1.10724e-18 0 0 1.01663e-30 
1.08091e-18 -2.56716e-20 0 0 -1.08091e-18 0 0 0 
1.30477e-18 -1.63097e-21 0 0 -1.30477e-18 0 0 0 
9.55932e-19 -2.27035e-20 0 0 -9.55932e-19 0 0 0 
1.0934e-18 -2.66517e-20 0 0 -1.0934e-18 0 0 0 
1.34502e-18 -1.68128e-21 0 0 -1.34502e-18 0 0 0 
1.02924e-18 -2.44445e-20 0 0 -1.02924e-18 0 0 0 
1.1703e-18 -2.85261e-20 0 0 -1.1703e-18 0 0 0 
9.08938e-19 -1.13617e-21 0 0 -9.08938e-19 0 0 0 
1.05533e-18 -2.50642e-20 0 0 -1.05533e-18 0 0 0 
1.06856e-18 -2.53783e-20 0 0 -1.06856e-18 0 0 0 
1.26734e-18 -1.58418e-21 0 0 -1.26734e-18 0 0 0 
9.23902e-19 -1.15489e-21 0 0 -9.23902e-19 0 0 0 
8.69854e-19 -1.08732e-21 0 0 -8.69854e-19 0 0 0 
1.17113e-18 -2.78144e-20 0 0 -1.17113e-18 0 0 1.08584e-30 
1.0443e-18 -2.48023e-20 0 0 -1.0443e-18 0 0 0 
1.03531e-18 -2.45887e-20 0 0 -1.03531e-18 0 0 9.42576e-31 
1.75289e-18 -2.19112e-21 0 0 -1.75289e-18 0 0 0 
1.0382e-18 -2.46572e-20 0 0 -1.0382e-18 0 0 0 
1.03017e-18 -2.44665e-20 0 0 -1.03017e-18 0 0 0 
1.10193e-18 -2.61708e-20 0 0 -1.10193e-18 0 0 0 
1.28566e-18 -1.60708e-21 0 0 -1.28566e-18 0 0 0 
1.13175e-18 -2.6879e-20 0 0 -1.13175e-18 0 0 0 
9.79926e-19 -2.32733e-20 0 0 -9.79926e-19 0 0 0 
1.108e-18 -2.6315e-20 0 0 -1.108e-18 0 0 0 
1.07344e-18 -1.34181e-21 0 0 -1.07344e-18 0 0 0 
9.33794e-19 -2.21777e-20 0 0 -9.33794e-19 0 0 0 
1.01171e-18 -2.46605e-20 0 0 -1.01171e-18 0 0 9.30703e-31 
1.29463e-18 -1.61831e-21 0 0 -1.29463e-18 0 0 0 
1.01819e-18 -2.4182e-20 0 0 -1.01819e-18 0 0 0 
9.67034e-19 -2.29671e-20 0 0 -9.67034e-19 0 0 0 
1.1169e-18 -1.39613e-21 0 0 -1.1169e-18 0 0 0 
9.96148e-19 -2.36586e-20 0 0 -9.96148e-19 0 0 0 
1.11396e-18 -2.64566e-20 0 0 -1.11396e-18 0 0 0 
1.1388e-18 -1.42349e-21 0 0 -1.1388e-18 0 0 0 
1.07439e-18 -2.55167e-20 0 0 -1.07439e-18 0 0 0 
1.0914e-18 -2.59207e-20 0 0 -1.0914e-18 0 0 0 
7.82762e-19 -9.78453e-22 0 0 -7.82762e-19 0 0 0 
1.58185e-18 -1.97733e-21 0 0 -1.58185e-18 0 0 0 
1.20405e-18 -2.85962e-20 0 0 -1.20405e-18 0 0 0 
1.10016e-18 -2.61289e-20 0 0 -1.10016e-18 0 0 0 
1.34038e-18 -1.67548e-21 0 0 -1.34038e-18 0 0 0 
1.06535e-18 -2.53021e-20 0 0 -1.06535e-18 0 0 0 
1.121e-18 -2.66237e-20 0 0 -1.121e-18 0 0 0 
1.05976e-18 -2.51694e-20 0 0 -1.05976e-18 0 0 0 
1.13076e-18 -2.68555e-20 0 0 -1.13076e-18 0 0 0 
1.00584e-18 -2.38887e-20 0 0 -1.00584e-18 0 0 0 
1.04232e-18 -2.54067e-20 0 0 -1.04232e-18 0 0 0 
1.09223e-18 -2.73058e-20 0 0 -1.09223e-18 0 0 0 
1.00625e-18 -2.51561e-20 0 0 -1.00625e-18 0 0 0 
9.71508e-19 -2.42877e-20 0 0 -9.71508e-19 0 0 0 
1.0505e-18 -2.62627e-20 0 0 -1.0505e-18 0 0 0 
1.05854e-18 -9.10347e-19 0 0 -1.05854e-18 0 0 9.74607e-31 
1.05781e-18 -5.02461e-19 0 0 -1.05781e-18 0 0 9.75619e-31 
1.066e-18 -5.0635e-19 0 0 -1.066e-18 0 0 0 
1.0419e-18 -4.94901e-19 0 0 -1.0419e-18 0 0 0 
1.05266e-18 -5.13172e-19 0 0 -1.05266e-18 0 0 0 
1.0741e-18 -9.23723e-19 0 0 -1.0741e-18 0 0 9.92778e-31 
1.06916e-18 -5.07852e-19 0 0 -1.06916e-18 0 0 0 
1.05087e-18 -4.99165e-19 0 0 -1.05087e-18 0 0 0 
1.06042e-18 -5.037e-19 0 0 -1.06042e-18 0 0 0 
1.05524e-18 -5.1443e-19 0 0 -1.05524e-18 0 0 0 
1.13882e-18 -2.84704e-20 0 0 -1.13882e-18 0 0 1.05455e-30 
1.07382e-18 -2.68454e-20 0 0 -1.07382e-18 0 0 0 
1.16356e-18 -2.9089e-20 0 0 -1.16356e-18 0 0 1.06151e-30 
1.53249e-21 0 0 -8.96506e-21 0 0 -1.53249e-21 0 
0 0 0 0 0 0 0 0 
0 0 0 0 0 0 0 0 
0 0 0 0 0 0 0 0 
0 0 0 0 0 0 0 0 
0 0 0 0 0 0 0 0 
0 0 0 0 0 0 0 0 
0 0 0 0 0 0 0 0 
0 0 0 0 0 0 0 0 
0 0 0 0 0 0 0 0 
0 0 0 0 0 0 0 0 
0 0 0 0 0 0 0 0 
0 0 0 0 0 0 0 0 
0 0 0 0 0 0 0 0 
0 0 0 0 0 0 0 0 
0 0 0 0 0 0 0 0 
0 0 0 0 0 0 0 0 
0 0 0 0 0 0 0 0 
0 0 0 0 0 0 0 0 
0 0 0 0 0 0 0 0 
0 0 0 0 0 0 0 0 
0 0 0 0 0 0 0 0 
0 0 0 0 0 0 0 0 
0 0 0 0 0 0 0 0 
0 0 0 0 0 0 0 0 
0 0 0 0 0 0 0 0 
0 0 0 0 0 0 0 0 
0 0 0 0 0 0 0 0 
0 0 0 0 0 0 0 0 
0 0 0 0 0 0 0 0 
0 0 0 0 0 0 0 0 
0 0 0 0 0 0 0 0 
0 0 0 0 0 0 0 0 
0 0 0 0 0 0 0 0 
0 0 0 0 0 0 0 0 
0 0 0 0 0 0 0 0 
0 0 0 0 0 0 0 0 
0 0 0 0 0 0 0 0 
0 0 0 0 0 0 0 0 
0 0 0 0 0 0 0 0 
0 0 0 0 0 0 0 0 
0 0 0 0 0 0 0 0 
0 0 0 0 0 0 0 0 
0 0 0 0 0 0 0 0 
0 0 0 0 0 0 0 0 
0 0 0 0 0 0 0 0 
0 0 0 0 0 0 0 0 
0 0 0 0 0 0 0 0 
0 0 0 0 0 0 0 0 
0 0 0 0 0 0 0 0 
0 0 0 0 0 0 0 0 
0 0 0 0 0 0 0 0 
0 0 0 0 0 0 0 0 
0 0 0 0 0 0 0 0 
0 0 0 0 0 0 0 0 
0 0 0 0 0 0 0 0 
0 0 0 0 0 0 0 0 
0 0 0 0 0 0 0 0 
0 0 0 0 0 0 0 0 
0 0 0 0 0 0 0 0 
0 0 0 0 0 0 0 0 
0 0 0 0 0 0 0 0 
0 0 0 0 0 0 0 0 
0 0 0 0 0 0 0 0 
0 0 0 0 0 0 0 0 
0 0 0 0 0 0 0 0 
0 0 0 0 0 0 0 0 
0 0 0 0 0 0 0 0 
0 0 0 0 0 0 0 0 
0 0 0 0 0 0 0 0 
0 0 0 0 0 0 0 0 
0 0 0 0 0 0 0 0 
0 0 0 0 0 0 0 0 
0 0 0 0 0 0 0 0 
0 0 0 0 0 0 0 0 
0 0 0 0 0 0 0 0 
0 0 0 0 0 0 0 0 
0 0 0 0 0 0 0 0 
0 0 0 0 0 0 0 0 
0 0 0 0 0 0 0 0 
0 0 0 0 0 0 0 0 
0 0 0 0 0 0 0 0 
0 0 0 0 0 0 0 0 
1.27477e-19 -1.3385e-19 -1.63932e-19 -1.63932e-19 -6.37384e-20 -7.80633e-20 -7.80633e-20 -4.12766e-32 
8.20138e-22 0 0 -1.21281e-19 0 0 -8.20138e-22 0 
1.09543e-22 0 2.21918e-20 -2.21918e-20 0 7.74584e-23 -7.74584e-23 -7.06772e-36 
1.25696e-19 -1.31979e-19 1.61641e-19 1.61641e-19 -6.28478e-20 7.69725e-20 7.69725e-20 -4.17759e-32 
8.10582e-22 0 0 1.19868e-19 0 0 8.10582e-22 0 
8.21071e-22 0 -7.48954e-20 7.48954e-20 0 -5.80585e-22 5.80585e-22 4.74225e-35 
7.05395e-22 0 -4.12656e-21 0 0 -7.05395e-22 0 0 
6.67343e-22 0 3.90396e-21 0 0 6.67343e-22 0 0 
7.30016e-22 0 0 -4.16109e-21 0 0 -7.30016e-22 0 
6.85401e-22 0 0 3.90679e-21 0 0 6.85401e-22 0 
6.78209e-22 0 0 -3.86579e-21 0 0 -6.78209e-22 0 
6.67819e-22 0 0 3.80657e-21 0 0 6.67819e-22 0 
7.56545e-22 0 0 4.3123e-21 0 0 7.56545e-22 0 
7.03993e-22 0 0 -4.01276e-21 0 0 -7.03993e-22 0 
7.00514e-22 0 0 -3.99293e-21 0 0 -7.00514e-22 0 
6.71909e-22 0 0 3.82988e-21 0 0 6.71909e-22 0 
7.48539e-22 0 0 -4.26667e-21 0 0 -7.48539e-22 0 
6.50809e-22 0 0 3.70961e-21 0 0 6.50809e-22 0 
7.12769e-22 0 -4.06278e-21 0 0 -7.12769e-22 0 0 
7.49896e-22 0 4.27441e-21 0 0 7.49896e-22 0 0 
7.04967e-22 0 0 -4.01831e-21 0 0 -7.04967e-22 0 
6.38913e-22 0 0 3.6418e-21 0 0 6.38913e-22 0 
7.5741e-22 0 -4.31724e-21 0 0 -7.5741e-22 0 0 
8.07779e-22 0 4.60434e-21 0 0 8.07779e-22 0 0 
6.64287e-22 0 -3.78644e-21 0 0 -6.64287e-22 0 0 
7.07684e-22 0 4.0338e-21 0 0 7.07684e-22 0 0 
7.39967e-22 0 4.32881e-21 0 0 7.39967e-22 0 0 
6.74589e-22 0 -3.94635e-21 0 0 -6.74589e-22 0 0 
6.72414e-22 0 3.93362e-21 0 0 6.72414e-22 0 0 
6.46383e-22 0 -3.78134e-21 0 0 -6.46383e-22 0 0 
6.33376e-22 0 -3.61024e-21 0 0 -6.33376e-22 0 0 
7.17044e-22 0 4.08715e-21 0 0 7.17044e-22 0 0 
6.88023e-22 0 4.02493e-21 0 0 6.88023e-22 0 0 
7.69312e-22 0 -2.25024e-21 0 0 -7.69312e-22 0 0 
7.00197e-22 0 0 2.04808e-21 0 0 7.00197e-22 0 
6.82707e-22 0 0 -3.89143e-21 0 0 -6.82707e-22 0 
1.54189e-21 0 0 8.78877e-21 0 0 1.54189e-21 0 
7.33979e-22 0 0 4.29378e-21 0 0 7.33979e-22 0 
6.30692e-22 0 0 -3.68955e-21 0 0 -6.30692e-22 0 
6.66448e-22 0 -3.79876e-21 0 0 -6.66448e-22 0 0 
7.20206e-22 0 4.10517e-21 0 0 7.20206e-22 0 0 
7.60932e-22 0 -4.33732e-21 0 0 -7.60932e-22 0 0 
6.87737e-22 0 3.9201e-21 0 0 6.87737e-22 0 0 
6.84035e-22 0 0 3.899e-21 0 0 6.84035e-22 0 
7.09396e-22 0 0 -4.04356e-21 0 0 -7.09396e-22 0 
6.89722e-22 0 -3.93142e-21 0 0 -6.89722e-22 0 0 
7.45535e-22 0 4.24955e-21 0 0 7.45535e-22 0 0 
7.07795e-22 0 0 4.03443e-21 0 0 7.07795e-22 0 
6.74259e-22 0 0 -3.84328e-21 0 0 -6.74259e-22 0 
6.21489e-22 0 -3.54249e-21 0 0 -6.21489e-22 0 0 
7.11688e-22 0 4.05662e-21 0 0 7.11688e-22 0 0 
7.06634e-22 0 0 4.02781e-21 0 0 7.06634e-22 0 
1.66012e-21 0 0 -9.46268e-21 0 0 -1.66012e-21 0 
7.6483e-22 0 4.35953e-21 0 0 7.6483e-22 0 0 
7.56685e-22 0 -4.31311e-21 0 0 -7.56685e-22 0 0 
6.94507e-22 0 3.95869e-21 0 0 6.94507e-22 0 0 
7.50833e-22 0 -4.27974e-21 0 0 -7.50833e-22 0 0 
6.81487e-22 0 0 -3.88448e-21 0 0 -6.81487e-22 0 
7.47408e-22 0 0 4.26023e-21 0 0 7.47408e-22 0 
6.89418e-22 0 0 3.92968e-21 0 0 6.89418e-22 0 
1.60119e-21 0 0 -9.12677e-21 0 0 -1.60119e-21 0 
6.20797e-22 0 0 3.53854e-21 0 0 6.20797e-22 0 
1.55877e-21 0 0 -8.88501e-21 0 0 -1.55877e-21 0 
7.29203e-22 0 -4.15646e-21 0 0 -7.29203e-22 0 0 
1.64002e-21 0 9.34812e-21 0 0 1.64002e-21 0 0 
6.87128e-22 0 -3.91663e-21 0 0 -6.87128e-22 0 0 
7.28003e-22 0 4.14962e-21 0 0 7.28003e-22 0 0 
1.59195e-21 0 9.31289e-21 0 0 1.59195e-21 0 0 
7.02771e-22 0 0 -4.11121e-21 0 0 -7.02771e-22 0 
7.13732e-22 0 -4.17533e-21 0 0 -7.13732e-22 0 0 
6.96648e-22 0 4.07539e-21 0 0 6.96648e-22 0 0 
6.71841e-22 0 3.93027e-21 0 0 6.71841e-22 0 0 
6.68701e-22 0 -3.9119e-21 0 0 -6.68701e-22 0 0 
7.30009e-22 0 0 -4.27055e-21 0 0 -7.30009e-22 0 
7.00769e-22 0 0 4.0995e-21 0 0 7.00769e-22 0 
6.86587e-22 0 0 4.01654e-21 0 0 6.86587e-22 0 
5.99528e-22 0 0 -3.50724e-21 0 0 -5.99528e-22 0 
1.57575e-21 0 -8.9818e-21 0 0 -1.57575e-21 0 0 
6.89502e-22 0 3.93016e-21 0 0 6.89502e-22 0 0 
6.95787e-22 0 0 -4.07036e-21 0 0 -6.95787e-22 0 
7.62012e-22 0 0 4.45777e-21 0 0 7.62012e-22 0 
5.93035e-22 0 -1.73463e-21 0 0 -5.93035e-22 0 0 
1.6138e-21 0 -9.44073e-21 0 0 -1.6138e-21 0 0 
1.59062e-21 0 9.30513e-21 0 0 1.59062e-21 0 0 
1.62902e-21 0 -9.52975e-21 0 0 -1.62902e-21 0 0 
1.67967e-21 0 9.82606e-21 0 0 1.67967e-21 0 0 
1.53689e-21 0 -8.76029e-21 0 0 -1.53689e-21 0 0 
6.78195e-22 0 3.86571e-21 0 0 6.78195e-22 0 0 
1.54638e-21 0 0 -9.04634e-21 0 0 -1.54638e-21 0 
1.65394e-21 0 0 9.67557e-21 0 0 1.65394e-21 0 
7.15442e-22 0 4.07802e-21 0 0 7.15442e-22 0 0 
1.64946e-21 0 -9.40191e-21 0 0 -1.64946e-21 0 0 
1.54796e-21 0 0 8.82338e-21 0 0 1.54796e-21 0 
1.56789e-21 0 0 -8.93695e-21 0 0 -1.56789e-21 0 
1.61876e-21 0 0 9.46976e-21 0 0 1.61876e-21 0 
6.42439e-22 0 1.87913e-21 0 0 6.42439e-22 0 0 
7.2242e-22 0 -4.1178e-21 0 0 -7.2242e-22 0 0 
1.6286e-21 0 9.283e-21 0 0 1.6286e-21 0 0 
1.54872e-21 0 8.82769e-21 0 0 1.54872e-21 0 0 
1.60266e-21 0 -9.13516e-21 0 0 -1.60266e-21 0 0 
1.56844e-21 0 8.94008e-21 0 0 1.56844e-21 0 0 
1.58145e-21 0 -9.01424e-21 0 0 -1.58145e-21 0 0 
1.56242e-21 0 0 -8.90579e-21 0 0 -1.56242e-21 0 
1.59622e-21 0 0 9.09847e-21 0 0 1.59622e-21 0 
7.09784e-22 0 4.04577e-21 0 0 7.09784e-22 0 0 
1.56109e-21 0 -8.8982e-21 0 0 -1.56109e-21 0 0 
1.5813e-21 0 0 -9.01339e-21 0 0 -1.5813e-21 0 
1.5768e-21 0 0 8.98779e-21 0 0 1.5768e-21 0 
1.55602e-21 0 8.8693e-21 0 0 1.55602e-21 0 0 
7.34422e-22 0 -4.18621e-21 0 0 -7.34422e-22 0 0 
1.59608e-21 0 -9.09767e-21 0 0 -1.59608e-21 0 0 
1.47799e-21 0 8.42456e-21 0 0 1.47799e-21 0 0 
1.56902e-21 0 0 -8.94339e-21 0 0 -1.56902e-21 0 
1.55521e-21 0 0 8.86469e-21 0 0 1.55521e-21 0 
1.58429e-21 0 0 -9.03047e-21 0 0 -1.58429e-21 0 
1.65155e-21 0 0 9.41386e-21 0 0 1.65155e-21 0 
1.58866e-21 0 0 9.05536e-21 0 0 1.58866e-21 0 
1.5646e-21 0 0 -8.9182e-21 0 0 -1.5646e-21 0 
1.71427e-21 0 -9.77132e-21 0 0 -1.71427e-21 0 0 
1.64574e-21 0 9.38072e-21 0 0 1.64574e-21 0 0 
1.62272e-21 0 0 9.24951e-21 0 0 1.62272e-21 0 
1.59288e-21 0 0 -9.0794e-21 0 0 -1.59288e-21 0 
1.63175e-21 0 0 -9.30095e-21 0 0 -1.63175e-21 0 
7.04533e-22 0 0 4.01584e-21 0 0 7.04533e-22 0 
1.69907e-21 0 9.68467e-21 0 0 1.69907e-21 0 0 
1.6655e-21 0 -9.49335e-21 0 0 -1.6655e-21 0 0 
1.69918e-21 0 -9.68534e-21 0 0 -1.69918e-21 0 0 
1.62661e-21 0 9.27166e-21 0 0 1.62661e-21 0 0 
1.64479e-21 0 0 9.37528e-21 0 0 1.64479e-21 0 
1.67649e-21 0 0 -9.556e-21 0 0 -1.67649e-21 0 
1.61385e-21 0 9.19892e-21 0 0 1.61385e-21 0 0 
1.65978e-21 0 -9.46075e-21 0 0 -1.65978e-21 0 0 
1.58451e-21 0 0 9.0317e-21 0 0 1.58451e-21 0 
1.60192e-21 0 0 -9.13097e-21 0 0 -1.60192e-21 0 
0 0 0 0 0 0 0 0 
1.34788e-22 -1.65241e-24 -5.55226e-25 -2.48324e-23 -8.94715e-24 -3.00632e-24 -1.34457e-22 0 
0 0 0 0 0 0 0 0 
0 0 0 0 0 0 0 0 
0 0 0 0 0 0 0 0 
0 0 0 0 0 0 0 0 
0 0 0 0 0 0 0 0 
0 0 0 0 0 0 0 0 
0 0 0 0 0 0 0 0 
0 0 0 0 0 0 0 0 
0 0 0 0 0 0 0 0 
0 0 0 0 0 0 0 0 
0 0 0 0 0 0 0 0 
0 0 0 0 0 0 0 0 
0 0 0 0 0 0 0 0 
0 0 0 0 0 0 0 0 
2.43295e-23 -7.86254e-26 1.27583e-25 -4.45138e-24 -4.29492e-25 6.96927e-25 -2.43157e-23 -5.84468e-35 
0 0 0 0 0 0 0 0 
0 0 0 0 0 0 0 0 
0 0 0 0 0 0 0 0 
0 0 0 0 0 0 0 0 
0 0 0 0 0 0 0 0 
0 0 0 0 0 0 0 0 
0 0 0 0 0 0 0 0 
0 0 0 0 0 0 0 0 
0 0 0 0 0 0 0 0 
2.97164e-23 -2.77772e-25 0 -1.05865e-23 -7.79444e-25 0 -2.97062e-23 0 
3.90823e-24 -1.32648e-27 0 -2.78461e-24 -1.86172e-27 0 -3.90823e-24 0 
0 0 0 0 0 0 0 0 
2.07553e-22 -2.46963e-24 0 -3.79433e-23 -1.34805e-23 0 -2.07115e-22 0 
0 0 0 0 0 0 0 0 
1.08476e-22 -1.32984e-24 1.99848e-23 -4.46839e-25 -7.20054e-24 1.08209e-22 -2.41945e-24 -1.15868e-34 
0 0 0 0 0 0 0 0 
0 0 0 0 0 0 0 0 
0 0 0 0 0 0 0 0 
0 0 0 0 0 0 0 0 
0 0 0 0 0 0 0 0 
0 0 0 0 0 0 0 0 
3.53379e-23 -2.4957e-25 6.53568e-24 -1.11421e-25 -1.34823e-24 3.5307e-23 -6.0192e-25 0 
0 0 0 0 0 0 0 0 
0 0 0 0 0 0 0 0 
0 0 0 0 0 0 0 0 
0 0 0 0 0 0 0 0 
0 0 0 0 0 0 0 0 
0 0 0 0 0 0 0 0 
0 0 0 0 0 0 0 0 
0 0 0 0 0 0 0 0 
0 0 0 0 0 0 0 0 
0 0 0 0 0 0 0 0 
0 0 0 0 0 0 0 0 
0 0 0 0 0 0 0 0 
0 0 0 0 0 0 0 0 
0 0 0 0 0 0 0 0 
0 0 0 0 0 0 0 0 
0 0 0 0 0 0 0 0 
0 0 0 0 0 0 0 0 
3.56487e-23 -3.33224e-25 1.26998e-23 0 -9.35044e-25 3.56364e-23 0 6.00473e-35 
5.93237e-24 -2.01349e-27 4.22681e-24 0 -2.82594e-27 5.93237e-24 0 -1.5017e-35 
0 0 0 0 0 0 0 0 
0 0 0 0 0 0 0 0 
9.91904e-24 -1.34439e-26 0 7.06732e-24 -1.88686e-26 0 9.91902e-24 0 
2.71754e-23 -3.33152e-25 1.11942e-25 5.00659e-24 -1.80388e-24 6.06121e-25 2.71087e-23 0 
7.26622e-23 -5.20807e-25 2.29106e-25 1.34387e-23 -2.81344e-24 1.23765e-24 7.25972e-23 0 
0 0 0 0 0 0 0 0 
0 0 0 0 0 0 0 0 
0 0 0 0 0 0 0 0 
0 0 0 0 0 0 0 0 
0 0 0 0 0 0 0 0 
0 0 0 0 0 0 0 0 
0 0 0 0 0 0 0 0 
0 0 0 0 0 0 0 0 
0 0 0 0 0 0 0 0 
0 0 0 0 0 0 0 0 
0 0 0 0 0 0 0 0 
0 0 0 0 0 0 0 0 
0 0 0 0 0 0 0 0 
0 0 0 0 0 0 0 0 
0 0 0 0 0 0 0 0 
0 0 0 0 0 0 0 0 
0 0 0 0 0 0 0 0 
0 0 0 0 0 0 0 0 
3.04767e-23 -2.15518e-25 -1.11361e-25 5.62644e-24 -1.16631e-24 -6.02648e-25 3.04484e-23 1.15805e-34 
0 0 0 0 0 0 0 0 
0 0 0 0 0 0 0 0 
0 0 0 0 0 0 0 0 
0 0 0 0 0 0 0 0 
0 0 0 0 0 0 0 0 
0 0 0 0 0 0 0 0 
0 0 0 0 0 0 0 0 
4.75844e-23 -5.66196e-25 0 8.69903e-24 -3.0906e-24 0 4.7484e-23 -5.84042e-35 
8.03122e-24 -1.08852e-26 -5.72225e-24 0 -1.52775e-26 -8.03121e-24 0 1.5017e-35 
0 0 0 0 0 0 0 0 
0 0 0 0 0 0 0 0 
0 0 0 0 0 0 0 0 
0 0 0 0 0 0 0 0 
0 0 0 0 0 0 0 0 
0 0 0 0 0 0 0 0 
0 0 0 0 0 0 0 0 
0 0 0 0 0 0 0 0 
0 0 0 0 0 0 0 0 
0 0 0 0 0 0 0 0 
0 0 0 0 0 0 0 0 
0 0 0 0 0 0 0 0 
0 0 0 0 0 0 0 0 
0 0 0 0 0 0 0 0 
0 0 0 0 0 0 0 0 
0 0 0 0 0 0 0 0 
4.78883e-23 -1.75487e-25 -1.70602e-23 0 -4.92569e-25 -4.78858e-23 0 0 
0 0 0 0 0 0 0 0 
0 0 0 0 0 0 0 0 
0 0 0 0 0 0 0 0 
0 0 0 0 0 0 0 0 
0 0 0 0 0 0 0 0 
0 0 0 0 0 0 0 0 
0 0 0 0 0 0 0 0 
0 0 0 0 0 0 0 0 
6.71803e-23 -6.27964e-25 -2.3933e-23 0 -1.7621e-24 -6.71572e-23 0 0 
2.99466e-23 -1.01641e-26 -2.13369e-23 0 -1.42654e-26 -2.99466e-23 0 2.25255e-35 
0 0 0 0 0 0 0 0 
7.07435e-23 -8.41761e-25 -1.29328e-23 0 -4.59478e-24 -7.05942e-23 0 0 
0 0 0 0 0 0 0 0 
0 0 0 0 0 0 0 0 
0 0 0 0 0 0 0 0 
0 0 0 0 0 0 0 0 
0 0 0 0 0 0 0 0 
0 0 0 0 0 0 0 0 
0 0 0 0 0 0 0 0 
0 0 0 0 0 0 0 0 
0 0 0 0 0 0 0 0 
0 0 0 0 0 0 0 0 
0 0 0 0 0 0 0 0 
0 0 0 0 0 0 0 0 
0 0 0 0 0 0 0 0 
0 0 0 0 0 0 0 0 
0 0 0 0 0 0 0 0 
0 0 0 0 0 0 0 0 
0 0 0 0 0 0 0 0 
0 0 0 0 0 0 0 0 
0 0 0 0 0 0 0 0 
0 0 0 0 0 0 0 0 
0 0 0 0 0 0 0 0 
0 0 0 0 0 0 0 0 
0 0 0 0 0 0 0 0 
0 0 0 0 0 0 0 0 
0 0 0 0 0 0 0 0 
0 0 0 0 0 0 0 0 
0 0 0 0 0 0 0 0 
0 0 0 0 0 0 0 0 
0 0 0 0 0 0 0 0 
0 0 0 0 0 0 0 0 
0 0 0 0 0 0 0 0 
0 0 0 0 0 0 0 0 
0 0 0 0 0 0 0 0 
0 0 0 0 0 0 0 0 
0 0 0 0 0 0 0 0 
0 0 0 0 0 0 0 0 
0 0 0 0 0 0 0 0 
0 0 0 0 0 0 0 0 
0 0 0 0 0 0 0 0 
0 0 0 0 0 0 0 0 
0 0 0 0 0 0 0 0 
0 0 0 0 0 0 0 0 
0 0 0 0 0 0 0 0 
0 0 0 0 0 0 0 0 
0 0 0 0 0 0 0 0 
0 0 0 0 0 0 0 0 
0 0 0 0 0 0 0 0 
0 0 0 0 0 0 0 0 
0 0 0 0 0 0 0 0 
0 0 0 0 0 0 0 0 
0 0 0 0 0 0 0 0 
0 0 0 0 0 0 0 0 
0 0 0 0 0 0 0 0 
0 0 0 0 0 0 0 0 
0 0 0 0 0 0 0 0 
0 0 0 0 0 0 0 0 
0 0 0 0 0 0 0 0 
0 0 0 0 0 0 0 0 
0 0 0 0 0 0 0 0 
0 0 0 0 0 0 0 0 
0 0 0 0 0 0 0 0 
0 0 0 0 0 0 0 0 
0 0 0 0 0 0 0 0 
0 0 0 0 0 0 0 0 
0 0 0 0 0 0 0 0 
0 0 0 0 0 0 0 0 
0 0 0 0 0 0 0 0 
0 0 0 0 0 0 0 0 
0 0 0 0 0 0 0 0 
0 0 0 0 0 0 0 0 
0 0 0 0 0 0 0 0 
0 0 0 0 0 0 0 0 
0 0 0 0 0 0 0 0 
0 0 0 0 0 0 0 0 
0 0 0 0 0 0 0 0 
0 0 0 0 0 0 0 0 
0 0 0 0 0 0 0 0 
0 0 0 0 0 0 0 0 
0 0 0 0 0 0 0 0 
0 0 0 0 0 0 0 0 
0 0 0 0 0 0 0 0 
0 0 0 0 0 0 0 0 
0 0 0 0 0 0 0 0 
0 0 0 0 0 0 0 0 
0 0 0 0 0 0 0 0 
0 0 0 0 0 0 0 0 
0 0 0 0 0 0 0 0 
0 0 0 0 0 0 0 0 
0 0 0 0 0 0 0 0 
0 0 0 0 0 0 0 0 
0 0 0 0 0 0 0 0 
0 0 0 0 0 0 0 0 
0 0 0 0 0 0 0 0 
0 0 0 0 0 0 0 0 
0 0 0 0 0 0 0 0 
0 0 0 0 0 0 0 0 
0 0 0 0 0 0 0 0 
0 0 0 0 0 0 0 0 
0 0 0 0 0 0 0 0 
0 0 0 0 0 0 0 0 
0 0 0 0 0 0 0 0 
0 0 0 0 0 0 0 0 
0 0 0 0 0 0 0 0 
0 0 0 0 0 0 0 0 
0 0 0 0 0 0 0 0 
0 0 0 0 0 0 0 0 
0 0 0 0 0 0 0 0 
0 0 0 0 0 0 0 0 
0 0 0 0 0 0 0 0 
0 0 0 0 0 0 0 0 
0 0 0 0 0 0 0 0 
0 0 0 0 0 0 0 0 
0 0 0 0 0 0 0 0 
0 0 0 0 0 0 0 0 
0 0 0 0 0 0 0 0 
0 0 0 0 0 0 0 0 
0 0 0 0 0 0 0 0 
0 0 0 0 0 0 0 0 
0 0 0 0 0 0 0 0 
0 0 0 0 0 0 0 0 
0 0 0 0 0 0 0 0 
0 0 0 0 0 0 0 0 
0 0 0 0 0 0 0 0 
0 0 0 0 0 0 0 0 
0 0 0 0 0 0 0 0 
0 0 0 0 0 0 0 0 
0 0 0 0 0 0 0 0 
0 0 0 0 0 0 0 0 
0 0 0 0 0 0 0 0 
0 0 0 0 0 0 0 0 
0 0 0 0 0 0 0 0 
0 0 0 0 0 0 0 0 
0 0 0 0 0 0 0 0 
0 0 0 0 0 0 0 0 
0 0 0 0 0 0 0 0 
0 0 0 0 0 0 0 0 
0 0 0 0 0 0 0 0 
0 0 0 0 0 0 0 0 
0 0 0 0 0 0 0 0 
0 0 0 0 0 0 0 0 
0 0 0 0 0 0 0 0 
0 0 0 0 0 0 0 0 
0 0 0 0 0 0 0 0 
0 0 0 0 0 0 0 0 
0 0 0 0 0 0 0 0 
0 0 0 0 0 0 0 0 
0 0 0 0 0 0 0 0 
0 0 0 0 0 0 0 0 
0 0 0 0 0 0 0 0 
0 0 0 0 0 0 0 0 
0 0 0 0 0 0 0 0 
0 0 0 0 0 0 0 0 
0 0 0 0 0 0 0 0 
0 0 0 0 0 0 0 0 
0 0 0 0 0 0 0 0 
0 0 0 0 0 0 0 0 
0 0 0 0 0 0 0 0 
0 0 0 0 0 0 0 0 
0 0 0 0 0 0 0 0 
0 0 0 0 0 0 0 0 
0 0 0 0 0 0 0 0 
0 0 0 0 0 0 0 0 
0 0 0 0 0 0 0 0 
0 0 0 0 0 0 0 0 
0 0 0 0 0 0 0 0 
0 0 0 0 0 0 0 0 
0 0 0 0 0 0 0 0 
0 0 0 0 0 0 0 0 
0 0 0 0 0 0 0 0 
0 0 0 0 0 0 0 0 
0 0 0 0 0 0 0 0 
0 0 0 0 0 0 0 0 
0 0 0 0 0 0 0 0 
0 0 0 0 0 0 0 0 
0 0 0 0 0 0 0 0 
0 0 0 0 0 0 0 0 
0 0 0 0 0 0 0 0 
0 0 0 0 0 0 0 0 
0 0 0 0 0 0 0 0 
0 0 0 0 0 0 0 0 
0 0 0 0 0 0 0 0 
0 0 0 0 0 0 0 0 
0 0 0 0 0 0 0 0 
0 0 0 0 0 0 0 0 
0 0 0 0 0 0 0 0 
0 0 0 0 0 0 0 0 
0 0 0 0 0 0 0 0 
0 0 0 0 0 0 0 0 
0 0 0 0 0 0 0 0 
0 0 0 0 0 0 0 0 
0 0 0 0 0 0 0 0 
0 0 0 0 0 0 0 0 
0 0 0 0 0 0 0 0 
0 0 0 0 0 0 0 0 
0 0 0 0 0 0 0 0 
0 0 0 0 0 0 0 0 
0 0 0 0 0 0 0 0 
0 0 0 0 0 0 0 0 
0 0 0 0 0 0 0 0 
0 0 0 0 0 0 0 0 
0 0 0 0 0 0 0 0 
0 0 0 0 0 0 0 0 
0 0 0 0 0 0 0 0 
0 0 0 0 0 0 0 0 
0 0 0 0 0 0 0 0 
0 0 0 0 0 0 0 0 
0 0 0 0 0 0 0 0 
0 0 0 0 0 0 0 0 
0 0 0 0 0 0 0 0 
0 0 0 0 0 0 0 0 
0 0 0 0 0 0 0 0 
0 0 0 0 0 0 0 0 
0 0 0 0 0 0 0 0 
0 0 0 0 0 0 0 0 
0 0 0 0 0 0 0 0 
0 0 0 0 0 0 0 0 
0 0 0 0 0 0 0 0 
0 0 0 0 0 0 0 0 
0 0 0 0 0 0 0 0 
0 0 0 0 0 0 0 0 
0 0 0 0 0 0 0 0 
0 0 0 0 0 0 0 0 
0 0 0 0 0 0 0 0 
0 0 0 0 0 0 0 0 
0 0 0 0 0 0 0 0 
0 0 0 0 0 0 0 0 
0 0 0 0 0 0 0 0 
0 0 0 0 0 0 0 0 
0 0 0 0 0 0 0 0 
0 0 0 0 0 0 0 0 
0 0 0 0 0 0 0 0 
0 0 0 0 0 0 0 0 
0 0 0 0 0 0 0 0 
0 0 0 0 0 0 0 0 
0 0 0 0 0 0 0 0 
0 0 0 0 0 0 0 0 
0 0 0 0 0 0 0 0 
0 0 0 0 0 0 0 0 
0 0 0 0 0 0 0 0 
0 0 0 0 0 0 0 0 
0 0 0 0 0 0 0 0 
0 0 0 0 0 0 0 0 
0 0 0 0 0 0 0 0 
0 0 0 0 0 0 0 0 
0 0 0 0 0 0 0 0 
0 0 0 0 0 0 0 0 
0 0 0 0 0 0 0 0 
0 0 0 0 0 0 0 0 
0 0 0 0 0 0 0 0 
0 0 0 0 0 0 0 0 
0 0 0 0 0 0 0 0 
0 0 0 0 0 0 0 0 
0 0 0 0 0 0 0 0 
0 0 0 0 0 0 0 0 
0 0 0 0 0 0 0 0 
0 0 0 0 0 0 0 0 
0 0 0 0 0 0 0 0 
0 0 0 0 0 0 0 0 
0 0 0 0 0 0 0 0 
0 0 0 0 0 0 0 0 
0 0 0 0 0 0 0 0 
0 0 0 0 0 0 0 0 
0 0 0 0 0 0 0 0 
0 0 0 0 0 0 0 0 
0 0 0 0 0 0 0 0 
0 0 0 0 0 0 0 0 
0 0 0 0 0 0 0 0 
0 0 0 0 0 0 0 0 
0 0 0 0 0 0 0 0 
0 0 0 0 0 0 0 0 
0 0 0 0 0 0 0 0 
0 0 0 0 0 0 0 0 
0 0 0 0 0 0 0 0 
0 0 0 0 0 0 0 0 
0 0 0 0 0 0 0 0 
0 0 0 0 0 0 0 0 
0 0 0 0 0 0 0 0 
0 0 0 0 0 0 0 0 
0 0 0 0 0 0 0 0 
0 0 0 0 0 0 0 0 
0 0 0 0 0 0 0 0 
0 0 0 0 0 0 0 0 
0 0 0 0 0 0 0 0 
0 0 0 0 0 0 0 0 
0 0 0 0 0 0 0 0 
0 0 0 0 0 0 0 0 
0 0 0 0 0 0 0 0 
0 0 0 0 0 0 0 0 
0 0 0 0 0 0 0 0 
0 0 0 0 0 0 0 0 
0 0 0 0 0 0 0 0 
0 0 0 0 0 0 0 0 
0 0 0 0 0 0 0 0 
0 0 0 0 0 0 0 0 
0 0 0 0 0 0 0 0 
0 0 0 0 0 0 0 0 
0 0 0 0 0 0 0 0 
0 0 0 0 0 0 0 0 
0 0 0 0 0 0 0 0 
0 0 0 0 0 0 0 0 
0 0 0 0 0 0 0 0 
0 0 0 0 0 0 0 0 
0 0 0 0 0 0 0 0 
0 0 0 0 0 0 0 0 
0 0 0 0 0 0 0 0 
0 0 0 0 0 0 0 0 
0 0 0 0 0 0 0 0 
0 0 0 0 0 0 0 0 
0 0 0 0 0 0 0 0 
0 0 0 0 0 0 0 0 
0 0 0 0 0 0 0 0 
0 0 0 0 0 0 0 0 
0 0 0 0 0 0 0 0 
0 0 0 0 0 0 0 0 
0 0 0 0 0 0 0 0 
0 0 0 0 0 0 0 0 
0 0 0 0 0 0 0 0 
0 0 0 0 0 0 0 0 
0 0 0 0 0 0 0 0 
0 0 0 0 0 0 0 0 
0 0 0 0 0 0 0 0 
0 0 0 0 0 0 0 0 
0 0 0 0 0 0 0 0 
0 0 0 0 0 0 0 0 
0 0 0 0 0 0 0 0 
0 0 0 0 0 0 0 0 
0 0 0 0 0 0 0 0 
0 0 0 0 0 0 0 0 
0 0 0 0 0 0 0 0 
0 0 0 0 0 0 0 0 
0 0 0 0 0 0 0 0 
0 0 0 0 0 0 0 0 
0 0 0 0 0 0 0 0 
0 0 0 0 0 0 0 0 
0 0 0 0 0 0 0 0 
0 0 0 0 0 0 0 0 
0 0 0 0 0 0 0 0 
0 0 0 0 0 0 0 0 
0 0 0 0 0 0 0 0 
0 0 0 0 0 0 0 0 
0 0 0 0 0 0 0 0 
0 0 0 0 0 0 0 0 
0 0 0 0 0 0 0 0 
0 0 0 0 0 0 0 0 
0 0 0 0 0 0 0 0 
0 0 0 0 0 0 0 0 
0 0 0 0 0 0 0 0 
0 0 0 0 0 0 0 0 
0 0 0 0 0 0 0 0 
0 0 0 0 0 0 0 0 
0 0 0 0 0 0 0 0 
0 0 0 0 0 0 0 0 
0 0 0 0 0 0 0 0 
0 0 0 0 0 0 0 0 
0 0 0 0 0 0 0 0 
0 0 0 0 0 0 0 0 
0 0 0 0 0 0 0 0 
0 0 0 0 0 0 0 0 
0 0 0 0 0 0 0 0 
0 0 0 0 0 0 0 0 
0 0 0 0 0 0 0 0 
0 0 0 0 0 0 0 0 
0 0 0 0 0 0 0 0 
0 0 0 0 0 0 0 0 
0 0 0 0 0 0 0 0 
0 0 0 0 0 0 0 0 
0 0 0 0 0 0 0 0 
0 0 0 0 0 0 0 0 
0 0 0 0 0 0 0 0 
0 0 0 0 0 0 0 0 
0 0 0 0 0 0 0 0 
0 0 0 0 0 0 0 0 
0 0 0 0 0 0 0 0 
0 0 0 0 0 0 0 0 
0 0 0 0 0 0 0 0 
0 0 0 0 0 0 0 0 
0 0 0 0 0 0 0 0 
0 0 0 0 0 0 0 0 
0 0 0 0 0 0 0 0 
0 0 0 0 0 0 0 0 
0 0 0 0 0 0 0 0 
0 0 0 0 0 0 0 0 
0 0 0 0 0 0 0 0 
0 0 0 0 0 0 0 0 
0 0 0 0 0 0 0 0 
0 0 0 0 0 0 0 0 
0 0 0 0 0 0 0 0 
0 0 0 0 0 0 0 0 
0 0 0 0 0 0 0 0 
0 0 0 0 0 0 0 0 
0 0 0 0 0 0 0 0 
0 0 0 0 0 0 0 0 
0 0 0 0 0 0 0 0 
0 0 0 0 0 0 0 0 
0 0 0 0 0 0 0 0 
0 0 0 0 0 0 0 0 
0 0 0 0 0 0 0 0 
0 0 0 0 0 0 0 0 
0 0 0 0 0 0 0 0 
0 0 0 0 0 0 0 0 
0 0 0 0 0 0 0 0 
0 0 0 0 0 0 0 0 
0 0 0 0 0 0 0 0 
0 0 0 0 0 0 0 0 
0 0 0 0 0 0 0 0 
0 0 0 0 0 0 0 0 
0 0 0 0 0 0 0 0 
0 0 0 0 0 0 0 0 
0 0 0 0 0 0 0 0 
0 0 0 0 0 0 0 0 
0 0 0 0 0 0 0 0 
0 0 0 0 0 0 0 0 
0 0 0 0 0 0 0 0 
0 0 0 0 0 0 0 0 
0 0 0 0 0 0 0 0 
0 0 0 0 0 0 0 0 
0 0 0 0 0 0 0 0 
0 0 0 0 0 0 0 0 
0 0 0 0 0 0 0 0 
0 0 0 0 0 0 0 0 
0 0 0 0 0 0 0 0 
0 0 0 0 0 0 0 0 
0 0 0 0 0 0 0 0 
0 0 0 0 0 0 0 0 
0 0 0 0 0 0 0 0 
0 0 0 0 0 0 0 0 
0 0 0 0 0 0 0 0 
0 0 0 0 0 0 0 0 
0 0 0 0 0 0 0 0 
0 0 0 0 0 0 0 0 
0 0 0 0 0 0 0 0 
0 0 0 0 0 0 0 0 
0 0 0 0 0 0 0 0 
0 0 0 0 0 0 0 0 
0 0 0 0 0 0 0 0 
0 0 0 0 0 0 0 0 
0 0 0 0 0 0 0 0 
0 0 0 0 0 0 0 0 
0 0 0 0 0 0 0 0 
0 0 0 0 0 0 0 0 
0 0 0 0 0 0 0 0 
0 0 0 0 0 0 0 0 
0 0 0 0 0 0 0 0 
0 0 0 0 0 0 0 0 
0 0 0 0 0 0 0 0 
0 0 0 0 0 0 0 0 
0 0 0 0 0 0 0 0 
0 0 0 0 0 0 0 0 
0 0 0 0 0 0 0 0 
0 0 0 0 0 0 0 0 
0 0 0 0 0 0 0 0 
0 0 0 0 0 0 0 0 
0 0 0 0 0 0 0 0 
0 0 0 0 0 0 0 0 
0 0 0 0 0 0 0 0 
0 0 0 0 0 0 0 0 
0 0 0 0 0 0 0 0 
0 0 0 0 0 0 0 0 
0 0 0 0 0 0 0 0 
0 0 0 0 0 0 0 0 
0 0 0 0 0 0 0 0 
0 0 0 0 0 0 0 0 
0 0 0 0 0 0 0 0 
0 0 0 0 0 0 0 0 
0 0 0 0 0 0 0 0 
0 0 0 0 0 0 0 0 
0 0 0 0 0 0 0 0 
0 0 0 0 0 0 0 0 
0 0 0 0 0 0 0 0 
0 0 0 0 0 0 0 0 
0 0 0 0 0 0 0 0 
0 0 0 0 0 0 0 0 
0 0 0 0 0 0 0 0 
0 0 0 0 0 0 0 0 
0 0 0 0 0 0 0 0 
0 0 0 0 0 0 0 0 
0 0 0 0 0 0 0 0 
0 0 0 0 0 0 0 0 
0 0 0 0 0 0 0 0 
0 0 0 0 0 0 0 0 
0 0 0 0 0 0 0 0 
0 0 0 0 0 0 0 0 
0 0 0 0 0 0 0 0 
0 0 0 0 0 0 0 0 
0 0 0 0 0 0 0 0 
0 0 0 0 0 0 0 0 
0 0 0 0 0 0 0 0 
0 0 0 0 0 0 0 0 
0 0 0 0 0 0 0 0 
0 0 0 0 0 0 0 0 
0 0 0 0 0 0 0 0 
0 0 0 0 0 0 0 0 
0 0 0 0 0 0 0 0 
0 0 0 0 0 0 0 0 
0 0 0 0 0 0 0 0 
0 0 0 0 0 0 0 0 
0 0 0 0 0 0 0 0 
0 0 0 0 0 0 0 0 
0 0 0 0 0 0 0 0 
0 0 0 0 0 0 0 0 
0 0 0 0 0 0 0 0 
0 0 0 0 0 0 0 0 
0 0 0 0 0 0 0 0 
0 0 0 0 0 0 0 0 
0 0 0 0 0 0 0 0 
0 0 0 0 0 0 0 0 
0 0 0 0 0 0 0 0 
0 0 0 0 0 0 0 0 
0 0 0 0 0 0 0 0 
0 0 0 0 0 0 0 0 
0 0 0 0 0 0 0 0 
0 0 0 0 0 0 0 0 
0 0 0 0 0 0 0 0 
0 0 0 0 0 0 0 0 
0 0 0 0 0 0 0 0 
0 0 0 0 0 0 0 0 
0 0 0 0 0 0 0 0 
0 0 0 0 0 0 0 0 
0 0 0 0 0 0 0 0 
0 0 0 0 0 0 0 0 
0 0 0 0 0 0 0 0 
0 0 0 0 0 0 0 0 
0 0 0 0 0 0 0 0 
0 0 0 0 0 0 0 0 
0 0 0 0 0 0 0 0 
0 0 0 0 0 0 0 0 
0 0 0 0 0 0 0 0 
0 0 0 0 0 0 0 0 
0 0 0 0 0 0 0 0 
0 0 0 0 0 0 0 0 
0 0 0 0 0 0 0 0 
0 0 0 0 0 0 0 0 
0 0 0 0 0 0 0 0 
0 0 0 0 0 0 0 0 
0 0 0 0 0 0 0 0 
0 0 0 0 0 0 0 0 
0 0 0 0 0 0 0 0 
0 0 0 0 0 0 0 0 
0 0 0 0 0 0 0 0 
0 0 0 0 0 0 0 0 
0 0 0 0 0 0 0 0 
0 0 0 0 0 0 0 0 
0 0 0 0 0 0 0 0 
0 0 0 0 0 0 0 0 
0 0 0 0 0 0 0 0 
0 0 0 0 0 0 0 0 
0 0 0 0 0 0 0 0 
0 0 0 0 0 0 0 0 
0 0 0 0 0 0 0 0 
0 0 0 0 0 0 0 0 
0 0 0 0 0 0 0 0 
0 0 0 0 0 0 0 0 
0 0 0 0 0 0 0 0 
0 0 0 0 0 0 0 0 
0 0 0 0 0 0 0 0 
0 0 0 0 0 0 0 0 
0 0 0 0 0 0 0 0 
0 0 0 0 0 0 0 0 
0 0 0 0 0 0 0 0 
0 0 0 0 0 0 0 0 
0 0 0 0 0 0 0 0 
0 0 0 0 0 0 0 0 
0 0 0 0 0 0 0 0 
0 0 0 0 0 0 0 0 
0 0 0 0 0 0 0 0 
0 0 0 0 0 0 0 0 
0 0 0 0 0 0 0 0 
0 0 0 0 0 0 0 0 
0 0 0 0 0 0 0 0 
0 0 0 0 0 0 0 0 
0 0 0 0 0 0 0 0 
0 0 0 0 0 0 0 0 
0 0 0 0 0 0 0 0 
0 0 0 0 0 0 0 0 
0 0 0 0 0 0 0 0 
0 0 0 0 0 0 0 0 
0 0 0 0 0 0 0 0 
0 0 0 0 0 0 0 0 
0 0 0 0 0 0 0 0 
0 0 0 0 0 0 0 0 
0 0 0 0 0 0 0 0 
0 0 0 0 0 0 0 0 
0 0 0 0 0 0 0 0 
0 0 0 0 0 0 0 0 
0 0 0 0 0 0 0 0 
0 0 0 0 0 0 0 0 
0 0 0 0 0 0 0 0 
0 0 0 0 0 0 0 0 
0 0 0 0 0 0 0 0 
0 0 0 0 0 0 0 0 
0 0 0 0 0 0 0 0 
0 0 0 0 0 0 0 0 
0 0 0 0 0 0 0 0 
0 0 0 0 0 0 0 0 
0 0 0 0 0 0 0 0 
0 0 0 0 0 0 0 0 
0 0 0 0 0 0 0 0 
0 0 0 0 0 0 0 0 
0 0 0 0 0 0 0 0 
0 0 0 0 0 0 0 0 
0 0 0 0 0 0 0 0 
0 0 0 0 0 0 0 0 
0 0 0 0 0 0 0 0 
0 0 0 0 0 0 0 0 
0 0 0 0 0 0 0 0 
0 0 0 0 0 0 0 0 
0 0 0 0 0 0 0 0 
0 0 0 0 0 0 0 0 
0 0 0 0 0 0 0 0 
0 0 0 0 0 0 0 0 
0 0 0 0 0 0 0 0 
0 0 0 0 0 0 0 0 
0 0 0 0 0 0 0 0 
0 0 0 0 0 0 0 0 
0 0 0 0 0 0 0 0 
0 0 0 0 0 0 0 0 
0 0 0 0 0 0 0 0 
0 0 0 0 0 0 0 0 
0 0 0 0 0 0 0 0 
0 0 0 0 0 0 0 0 
0 0 0 0 0 0 0 0 
0 0 0 0 0 0 0 0 
0 0 0 0 0 0 0 0 
0 0 0 0 0 0 0 0 
0 0 0 0 0 0 0 0 
0 0 0 0 0 0 0 0 
0 0 0 0 0 0 0 0 
0 0 0 0 0 0 0 0 
0 0 0 0 0 0 0 0 
0 0 0 0 0 0 0 0 
0 0 0 0 0 0 0 0 
0 0 0 0 0 0 0 0 
0 0 0 0 0 0 0 0 
0 0 0 0 0 0 0 0 
0 0 0 0 0 0 0 0 
0 0 0 0 0 0 0 0 
0 0 0 0 0 0 0 0 
0 0 0 0 0 0 0 0 
0 0 0 0 0 0 0 0 
0 0 0 0 0 0 0 0 
0 0 0 0 0 0 0 0 
0 0 0 0 0 0 0 0 
0 0 0 0 0 0 0 0 
0 0 0 0 0 0 0 0 
0 0 0 0 0 0 0 0 
0 0 0 0 0 0 0 0 
0 0 0 0 0 0 0 0 
0 0 0 0 0 0 0 0 
0 0 0 0 0 0 0 0 
0 0 0 0 0 0 0 0 
0 0 0 0 0 0 0 0 
0 0 0 0 0 0 0 0 
0 0 0 0 0 0 0 0 
0 0 0 0 0 0 0 0 
0 0 0 0 0 0 0 0 
0 0 0 0 0 0 0 0 
0 0 0 0 0 0 0 0 
0 0 0 0 0 0 0 0 
0 0 0 0 0 0 0 0 
0 0 0 0 0 0 0 0 
0 0 0 0 0 0 0 0 
0 0 0 0 0 0 0 0 
0 0 0 0 0 0 0 0 
0 0 0 0 0 0 0 0 
0 0 0 0 0 0 0 0 
0 0 0 0 0 0 0 0 
0 0 0 0 0 0 0 0 
0 0 0 0 0 0 0 0 
0 0 0 0 0 0 0 0 
0 0 0 0 0 0 0 0 
0 0 0 0 0 0 0 0 
0 0 0 0 0 0 0 0 
0 0 0 0 0 0 0 0 
0 0 0 0 0 0 0 0 
0 0 0 0 0 0 0 0 
0 0 0 0 0 0 0 0 
0 0 0 0 0 0 0 0 
0 0 0 0 0 0 0 0 
0 0 0 0 0 0 0 0 
0 0 0 0 0 0 0 0 
0 0 0 0 0 0 0 0 
0 0 0 0 0 0 0 0 
0 0 0 0 0 0 0 0 
0 0 0 0 0 0 0 0 
0 0 0 0 0 0 0 0 
0 0 0 0 0 0 0 0 
0 0 0 0 0 0 0 0 
0 0 0 0 0 0 0 0 
0 0 0 0 0 0 0 0 
0 0 0 0 0 0 0 0 
0 0 0 0 0 0 0 0 
0 0 0 0 0 0 0 0 
0 0 0 0 0 0 0 0 
0 0 0 0 0 0 0 0 
0 0 0 0 0 0 0 0 
0 0 0 0 0 0 0 0 
0 0 0 0 0 0 0 0 
0 0 0 0 0 0 0 0 
0 0 0 0 0 0 0 0 
0 0 0 0 0 0 0 0 
0 0 0 0 0 0 0 0 
0 0 0 0 0 0 0 0 
0 0 0 0 0 0 0 0 
0 0 0 0 0 0 0 0 
0 0 0 0 0 0 0 0 
0 0 0 0 0 0 0 0 
0 0 0 0 0 0 0 0 
0 0 0 0 0 0 0 0 
0 0 0 0 0 0 0 0 
0 0 0 0 0 0 0 0 
0 0 0 0 0 0 0 0 
0 0 0 0 0 0 0 0 
0 0 0 0 0 0 0 0 
0 0 0 0 0 0 0 0 
0 0 0 0 0 0 0 0 
0 0 0 0 0 0 0 0 
0 0 0 0 0 0 0 0 
0 0 0 0 0 0 0 0 
0 0 0 0 0 0 0 0 
0 0 0 0 0 0 0 0 
0 0 0 0 0 0 0 0 
0 0 0 0 0 0 0 0 
0 0 0 0 0 0 0 0 
0 0 0 0 0 0 0 0 
0 0 0 0 0 0 0 0 
0 0 0 0 0 0 0 0 
0 0 0 0 0 0 0 0 
0 0 0 0 0 0 0 0 
0 0 0 0 0 0 0 0 
0 0 0 0 0 0 0 0 
0 0 0 0 0 0 0 0 
0 0 0 0 0 0 0 0 
0 0 0 0 0 0 0 0 
0 0 0 0 0 0 0 0 
0 0 0 0 0 0 0 0 
0 0 0 0 0 0 0 0 
0 0 0 0 0 0 0 0 
0 0 0 0 0 0 0 0 
0 0 0 0 0 0 0 0 
0 0 0 0 0 0 0 0 
0 0 0 0 0 0 0 0 
0 0 0 0 0 0 0 0 
0 0 0 0 0 0 0 0 
0 0 0 0 0 0 0 0 
0 0 0 0 0 0 0 0 
0 0 0 0 0 0 0 0 
0 0 0 0 0 0 0 0 
0 0 0 0 0 0 0 0 
0 0 0 0 0 0 0 0 
0 0 0 0 0 0 0 0 
0 0 0 0 0 0 0 0 
0 0 0 0 0 0 0 0 
0 0 0 0 0 0 0 0 
0 0 0 0 0 0 0 0 
0 0 0 0 0 0 0 0 
0 0 0 0 0 0 0 0 
0 0 0 0 0 0 0 0 
0 0 0 0 0 0 0 0 
0 0 0 0 0 0 0 0 
0 0 0 0 0 0 0 0 
0 0 0 0 0 0 0 0 
0 0 0 0 0 0 0 0 
0 0 0 0 0 0 0 0 
0 0 0 0 0 0 0 0 
0 0 0 0 0 0 0 0 
0 0 0 0 0 0 0 0 
0 0 0 0 0 0 0 0 
0 0 0 0 0 0 0 0 
0 0 0 0 0 0 0 0 
0 0 0 0 0 0 0 0 
0 0 0 0 0 0 0 0 
0 0 0 0 0 0 0 0 
0 0 0 0 0 0 0 0 
0 0 0 0 0 0 0 0 
0 0 0 0 0 0 0 0 
0 0 0 0 0 0 0 0 
0 0 0 0 0 0 0 0 
0 0 0 0 0 0 0 0 
0 0 0 0 0 0 0 0 
0 0 0 0 0 0 0 0 
0 0 0 0 0 0 0 0 
0 0 0 0 0 0 0 0 
0 0 0 0 0 0 0 0 
0 0 0 0 0 0 0 0 
0 0 0 0 0 0 0 0 
0 0 0 0 0 0 0 0 
0 0 0 0 0 0 0 0 
0 0 0 0 0 0 0 0 
0 0 0 0 0 0 0 0 
0 0 0 0 0 0 0 0 
0 0 0 0 0 0 0 0 
0 0 0 0 0 0 0 0 
0 0 0 0 0 0 0 0 
0 0 0 0 0 0 0 0 
0 0 0 0 0 0 0 0 
0 0 0 0 0 0 0 0 
0 0 0 0 0 0 0 0 
0 0 0 0 0 0 0 0 
0 0 0 0 0 0 0 0 