ITEM: TIMESTEP
90
ITEM: NUMBER OF SURFS
6916
ITEM: BOX BOUNDS oo rr rr
-20 20
-20 20
-20 20
ITEM: SURFS f_save[1] f_save[2] f_save[3] f_save[4] f_save[5] f_save[6] f_save[7] f_save[8] 
4.30411e-19 -3.22943e-20 0 0 -4.30411e-19 0 0 0 
7.34943e-21 0 0 -2.20559e-20 0 0 -7.34943e-21 0 
0 0 0 0 0 0 0 0 
1.35916e-18 -3.31295e-20 0 0 -1.35916e-18 0 0 1.26272e-30 
1.32722e-18 -1.65902e-21 0 0 -1.32722e-18 0 0 0 
1.18786e-18 -1.48483e-21 0 0 -1.18786e-18 0 0 0 
1.18347e-18 -1.47933e-21 0 0 -1.18347e-18 0 0 0 
1.27169e-18 -3.09973e-20 0 0 -1.27169e-18 0 0 1.17367e-30 
1.17847e-18 -2.79885e-20 0 0 -1.17847e-18 0 0 0 
1.34305e-18 -3.18973e-20 0 0 -1.34305e-18 0 0 0 
1.37155e-18 -3.25745e-20 0 0 -1.37155e-18 0 0 0 
1.34391e-18 -3.19179e-20 0 0 -1.34391e-18 0 0 0 
1.39626e-18 -3.40338e-20 0 0 -1.39626e-18 0 0 0 
1.3713e-18 -3.25685e-20 0 0 -1.3713e-18 0 0 0 
1.30287e-18 -3.09432e-20 0 0 -1.30287e-18 0 0 0 
1.31404e-18 -3.203e-20 0 0 -1.31404e-18 0 0 0 
1.31108e-18 -3.19576e-20 0 0 -1.31108e-18 0 0 1.21411e-30 
1.36954e-18 -3.25266e-20 0 0 -1.36954e-18 0 0 1.26694e-30 
1.31444e-18 -3.1218e-20 0 0 -1.31444e-18 0 0 0 
1.3218e-18 -3.22188e-20 0 0 -1.3218e-18 0 0 1.22343e-30 
1.30827e-18 -3.10714e-20 0 0 -1.30827e-18 0 0 0 
1.29383e-18 -3.07284e-20 0 0 -1.29383e-18 0 0 0 
1.30081e-18 -3.17073e-20 0 0 -1.30081e-18 0 0 0 
1.34954e-18 -3.20518e-20 0 0 -1.34954e-18 0 0 0 
1.40759e-18 -3.34302e-20 0 0 -1.40759e-18 0 0 0 
1.33349e-18 -3.16703e-20 0 0 -1.33349e-18 0 0 0 
1.2585e-18 -1.57312e-21 0 0 -1.2585e-18 0 0 0 
1.24097e-18 -2.9473e-20 0 0 -1.24097e-18 0 0 0 
1.31409e-18 -3.12097e-20 0 0 -1.31409e-18 0 0 0 
1.28233e-18 -1.60292e-21 0 0 -1.28233e-18 0 0 0 
1.21028e-18 -2.87441e-20 0 0 -1.21028e-18 0 0 0 
1.36815e-18 -3.24935e-20 0 0 -1.36815e-18 0 0 0 
2.01504e-18 -2.51881e-21 0 0 -2.01504e-18 0 0 0 
1.29928e-18 -3.16699e-20 0 0 -1.29928e-18 0 0 1.1955e-30 
1.35104e-18 -3.20873e-20 0 0 -1.35104e-18 0 0 0 
1.67935e-18 -2.0992e-21 0 0 -1.67935e-18 0 0 0 
1.32382e-18 -3.22681e-20 0 0 -1.32382e-18 0 0 1.21926e-30 
1.279e-18 -3.03763e-20 0 0 -1.279e-18 0 0 0 
1.55964e-18 -1.94955e-21 0 0 -1.55964e-18 0 0 0 
1.22822e-18 -2.91703e-20 0 0 -1.22822e-18 0 0 0 
1.34152e-18 -3.26996e-20 0 0 -1.34152e-18 0 0 0 
1.42914e-18 -1.78644e-21 0 0 -1.42914e-18 0 0 0 
1.24031e-18 -2.94575e-20 0 0 -1.24031e-18 0 0 0 
1.30506e-18 -3.18109e-20 0 0 -1.30506e-18 0 0 0 
1.51584e-18 -1.8948e-21 0 0 -1.51584e-18 0 0 0 
1.38029e-18 -3.2782e-20 0 0 -1.38029e-18 0 0 0 
1.3032e-18 -3.0951e-20 0 0 -1.3032e-18 0 0 0 
1.56333e-18 -1.95416e-21 0 0 -1.56333e-18 0 0 0 
1.30836e-18 -1.63546e-21 0 0 -1.30836e-18 0 0 0 
1.34287e-18 -1.67859e-21 0 0 -1.34287e-18 0 0 0 
1.34867e-18 -3.2031e-20 0 0 -1.34867e-18 0 0 1.25174e-30 
1.32609e-18 -3.14947e-20 0 0 -1.32609e-18 0 0 0 
1.2793e-18 -3.03836e-20 0 0 -1.2793e-18 0 0 1.17639e-30 
1.66854e-18 -2.08568e-21 0 0 -1.66854e-18 0 0 0 
1.3107e-18 -3.11291e-20 0 0 -1.3107e-18 0 0 0 
1.31295e-18 -3.11825e-20 0 0 -1.31295e-18 0 0 0 
1.43583e-18 -3.41009e-20 0 0 -1.43583e-18 0 0 0 
1.69373e-18 -2.11716e-21 0 0 -1.69373e-18 0 0 0 
1.38942e-18 -3.29986e-20 0 0 -1.38942e-18 0 0 0 
1.34067e-18 -3.18409e-20 0 0 -1.34067e-18 0 0 0 
1.2747e-18 -3.02742e-20 0 0 -1.2747e-18 0 0 0 
1.63291e-18 -2.04115e-21 0 0 -1.63291e-18 0 0 0 
1.26521e-18 -3.00488e-20 0 0 -1.26521e-18 0 0 0 
1.18124e-18 -2.87927e-20 0 0 -1.18124e-18 0 0 1.09169e-30 
1.38187e-18 -1.72736e-21 0 0 -1.38187e-18 0 0 0 
1.24932e-18 -2.96715e-20 0 0 -1.24932e-18 0 0 0 
1.23221e-18 -2.92649e-20 0 0 -1.23221e-18 0 0 0 
1.55044e-18 -1.93805e-21 0 0 -1.55044e-18 0 0 0 
1.24922e-18 -2.96691e-20 0 0 -1.24922e-18 0 0 0 
1.33196e-18 -3.16341e-20 0 0 -1.33196e-18 0 0 0 
1.77669e-18 -2.22086e-21 0 0 -1.77669e-18 0 0 0 
1.35875e-18 -3.22703e-20 0 0 -1.35875e-18 0 0 0 
1.22881e-18 -2.91842e-20 0 0 -1.22881e-18 0 0 0 
1.15731e-18 -1.44663e-21 0 0 -1.15731e-18 0 0 0 
1.55537e-18 -1.94422e-21 0 0 -1.55537e-18 0 0 0 
1.35097e-18 -3.20854e-20 0 0 -1.35097e-18 0 0 0 
1.39396e-18 -3.31065e-20 0 0 -1.39396e-18 0 0 0 
1.67248e-18 -2.0906e-21 0 0 -1.67248e-18 0 0 0 
1.34677e-18 -3.19858e-20 0 0 -1.34677e-18 0 0 0 
1.29095e-18 -3.066e-20 0 0 -1.29095e-18 0 0 0 
1.24618e-18 -2.95969e-20 0 0 -1.24618e-18 0 0 0 
1.29145e-18 -3.0672e-20 0 0 -1.29145e-18 0 0 0 
1.31438e-18 -3.12165e-20 0 0 -1.31438e-18 0 0 0 
1.35248e-18 -3.29669e-20 0 0 -1.35248e-18 0 0 0 
1.33209e-18 -3.33023e-20 0 0 -1.33209e-18 0 0 0 
1.27194e-18 -3.17984e-20 0 0 -1.27194e-18 0 0 0 
1.21008e-18 -3.02519e-20 0 0 -1.21008e-18 0 0 0 
1.28701e-18 -3.21753e-20 0 0 -1.28701e-18 0 0 0 
1.29709e-18 -1.1155e-18 0 0 -1.29709e-18 0 0 1.19635e-30 
1.31532e-18 -6.24776e-19 0 0 -1.31532e-18 0 0 1.21254e-30 
1.29673e-18 -6.15946e-19 0 0 -1.29673e-18 0 0 0 
1.28271e-18 -6.09287e-19 0 0 -1.28271e-18 0 0 0 
1.2908e-18 -6.29266e-19 0 0 -1.2908e-18 0 0 0 
1.30885e-18 -1.12561e-18 0 0 -1.30885e-18 0 0 1.2076e-30 
1.30956e-18 -6.22042e-19 0 0 -1.30956e-18 0 0 0 
1.28881e-18 -6.12187e-19 0 0 -1.28881e-18 0 0 0 
1.29939e-18 -6.1721e-19 0 0 -1.29939e-18 0 0 0 
1.28986e-18 -6.28808e-19 0 0 -1.28986e-18 0 0 0 
1.33605e-18 -3.34012e-20 0 0 -1.33605e-18 0 0 1.22874e-30 
1.21961e-18 -3.04901e-20 0 0 -1.21961e-18 0 0 0 
1.3648e-18 -3.412e-20 0 0 -1.3648e-18 0 0 1.25522e-30 
2.63714e-21 0 0 -1.54273e-20 0 0 -2.63714e-21 0 
0 0 0 0 0 0 0 0 
0 0 0 0 0 0 0 0 
0 0 0 0 0 0 0 0 
0 0 0 0 0 0 0 0 
0 0 0 0 0 0 0 0 
0 0 0 0 0 0 0 0 
0 0 0 0 0 0 0 0 
0 0 0 0 0 0 0 0 
0 0 0 0 0 0 0 0 
0 0 0 0 0 0 0 0 
0 0 0 0 0 0 0 0 
0 0 0 0 0 0 0 0 
0 0 0 0 0 0 0 0 
0 0 0 0 0 0 0 0 
0 0 0 0 0 0 0 0 
0 0 0 0 0 0 0 0 
0 0 0 0 0 0 0 0 
0 0 0 0 0 0 0 0 
0 0 0 0 0 0 0 0 
0 0 0 0 0 0 0 0 
0 0 0 0 0 0 0 0 
0 0 0 0 0 0 0 0 
0 0 0 0 0 0 0 0 
0 0 0 0 0 0 0 0 
0 0 0 0 0 0 0 0 
0 0 0 0 0 0 0 0 
0 0 0 0 0 0 0 0 
0 0 0 0 0 0 0 0 
0 0 0 0 0 0 0 0 
0 0 0 0 0 0 0 0 
0 0 0 0 0 0 0 0 
0 0 0 0 0 0 0 0 
0 0 0 0 0 0 0 0 
0 0 0 0 0 0 0 0 
0 0 0 0 0 0 0 0 
0 0 0 0 0 0 0 0 
0 0 0 0 0 0 0 0 
0 0 0 0 0 0 0 0 
0 0 0 0 0 0 0 0 
0 0 0 0 0 0 0 0 
0 0 0 0 0 0 0 0 
0 0 0 0 0 0 0 0 
0 0 0 0 0 0 0 0 
0 0 0 0 0 0 0 0 
0 0 0 0 0 0 0 0 
0 0 0 0 0 0 0 0 
0 0 0 0 0 0 0 0 
0 0 0 0 0 0 0 0 
0 0 0 0 0 0 0 0 
0 0 0 0 0 0 0 0 
0 0 0 0 0 0 0 0 
8.98553e-22 2.13407e-23 0 0 8.98553e-22 0 0 0 
0 0 0 0 0 0 0 0 
0 0 0 0 0 0 0 0 
0 0 0 0 0 0 0 0 
0 0 0 0 0 0 0 0 
0 0 0 0 0 0 0 0 
0 0 0 0 0 0 0 0 
0 0 0 0 0 0 0 0 
0 0 0 0 0 0 0 0 
0 0 0 0 0 0 0 0 
0 0 0 0 0 0 0 0 
0 0 0 0 0 0 0 0 
0 0 0 0 0 0 0 0 
0 0 0 0 0 0 0 0 
0 0 0 0 0 0 0 0 
0 0 0 0 0 0 0 0 
0 0 0 0 0 0 0 0 
0 0 0 0 0 0 0 0 
0 0 0 0 0 0 0 0 
0 0 0 0 0 0 0 0 
0 0 0 0 0 0 0 0 
0 0 0 0 0 0 0 0 
0 0 0 0 0 0 0 0 
0 0 0 0 0 0 0 0 
0 0 0 0 0 0 0 0 
0 0 0 0 0 0 0 0 
0 0 0 0 0 0 0 0 
0 0 0 0 0 0 0 0 
0 0 0 0 0 0 0 0 
0 0 0 0 0 0 0 0 
0 0 0 0 0 0 0 0 
2.57232e-19 -2.70092e-19 -3.30793e-19 -3.30793e-19 -1.28616e-19 -1.57522e-19 -1.57522e-19 -8.54628e-32 
1.97367e-21 0 0 -2.91864e-19 0 0 -1.97367e-21 0 
8.31358e-22 0 1.68422e-19 -1.68422e-19 0 5.87859e-22 -5.87859e-22 -3.93159e-35 
2.59916e-19 -2.7291e-19 3.34245e-19 3.34245e-19 -1.29958e-19 1.59165e-19 1.59165e-19 -8.65095e-32 
1.98671e-21 0 0 2.93793e-19 0 0 1.98671e-21 0 
1.9624e-21 0 -1.79004e-19 1.79004e-19 0 -1.38763e-21 1.38763e-21 1.16897e-34 
2.21898e-21 0 -1.2981e-20 0 0 -2.21898e-21 0 0 
2.22896e-21 0 1.30394e-20 0 0 2.22896e-21 0 0 
2.17305e-21 0 0 -1.23864e-20 0 0 -2.17305e-21 0 
2.22e-21 0 0 1.2654e-20 0 0 2.22e-21 0 
2.20855e-21 0 0 -1.25887e-20 0 0 -2.20855e-21 0 
2.20899e-21 0 0 1.25913e-20 0 0 2.20899e-21 0 
2.27172e-21 0 0 1.29488e-20 0 0 2.27172e-21 0 
2.22925e-21 0 0 -1.27067e-20 0 0 -2.22925e-21 0 
2.16365e-21 0 0 -1.23328e-20 0 0 -2.16365e-21 0 
2.1586e-21 0 0 1.2304e-20 0 0 2.1586e-21 0 
2.18331e-21 0 0 -1.24449e-20 0 0 -2.18331e-21 0 
2.15204e-21 0 0 1.22666e-20 0 0 2.15204e-21 0 
2.25316e-21 0 -1.2843e-20 0 0 -2.25316e-21 0 0 
2.21573e-21 0 1.26297e-20 0 0 2.21573e-21 0 0 
2.21621e-21 0 0 -1.26324e-20 0 0 -2.21621e-21 0 
2.2768e-21 0 0 1.29778e-20 0 0 2.2768e-21 0 
2.31308e-21 0 -1.31845e-20 0 0 -2.31308e-21 0 0 
2.3656e-21 0 1.34839e-20 0 0 2.3656e-21 0 0 
2.25009e-21 0 -1.28255e-20 0 0 -2.25009e-21 0 0 
2.22197e-21 0 1.26652e-20 0 0 2.22197e-21 0 0 
2.23998e-21 0 1.31039e-20 0 0 2.23998e-21 0 0 
2.28419e-21 0 -1.33625e-20 0 0 -2.28419e-21 0 0 
2.18211e-21 0 1.27653e-20 0 0 2.18211e-21 0 0 
2.15939e-21 0 -1.26324e-20 0 0 -2.15939e-21 0 0 
2.1703e-21 0 -1.23707e-20 0 0 -2.1703e-21 0 0 
2.21186e-21 0 1.26076e-20 0 0 2.21186e-21 0 0 
2.23623e-21 0 1.30819e-20 0 0 2.23623e-21 0 0 
2.25198e-21 0 -6.58705e-21 0 0 -2.25198e-21 0 0 
2.20244e-21 0 0 6.44214e-21 0 0 2.20244e-21 0 
2.23327e-21 0 0 -1.27296e-20 0 0 -2.23327e-21 0 
2.7342e-21 0 0 1.55849e-20 0 0 2.7342e-21 0 
2.19515e-21 0 0 1.28416e-20 0 0 2.19515e-21 0 
2.14174e-21 0 0 -1.25292e-20 0 0 -2.14174e-21 0 
2.13756e-21 0 -1.21841e-20 0 0 -2.13756e-21 0 0 
2.20022e-21 0 1.25413e-20 0 0 2.20022e-21 0 0 
2.21705e-21 0 -1.26372e-20 0 0 -2.21705e-21 0 0 
2.15214e-21 0 1.22672e-20 0 0 2.15214e-21 0 0 
2.22731e-21 0 0 1.26957e-20 0 0 2.22731e-21 0 
2.19546e-21 0 0 -1.25141e-20 0 0 -2.19546e-21 0 
2.15212e-21 0 -1.22671e-20 0 0 -2.15212e-21 0 0 
2.17696e-21 0 1.24087e-20 0 0 2.17696e-21 0 0 
2.25997e-21 0 0 1.28818e-20 0 0 2.25997e-21 0 
2.15626e-21 0 0 -1.22907e-20 0 0 -2.15626e-21 0 
2.14612e-21 0 -1.22329e-20 0 0 -2.14612e-21 0 0 
2.23398e-21 0 1.27337e-20 0 0 2.23398e-21 0 0 
2.20485e-21 0 0 1.25676e-20 0 0 2.20485e-21 0 
2.63254e-21 0 0 -1.50055e-20 0 0 -2.63254e-21 0 
2.27046e-21 0 1.29416e-20 0 0 2.27046e-21 0 0 
2.23267e-21 0 -1.27262e-20 0 0 -2.23267e-21 0 0 
2.17906e-21 0 1.24207e-20 0 0 2.17906e-21 0 0 
2.23365e-21 0 -1.27318e-20 0 0 -2.23365e-21 0 0 
2.16157e-21 0 0 -1.2321e-20 0 0 -2.16157e-21 0 
2.26117e-21 0 0 1.28887e-20 0 0 2.26117e-21 0 
2.20865e-21 0 0 1.25893e-20 0 0 2.20865e-21 0 
2.68352e-21 0 0 -1.5296e-20 0 0 -2.68352e-21 0 
2.17126e-21 0 0 1.23762e-20 0 0 2.17126e-21 0 
2.68951e-21 0 0 -1.53302e-20 0 0 -2.68951e-21 0 
2.17809e-21 0 -1.24151e-20 0 0 -2.17809e-21 0 0 
2.71011e-21 0 1.54476e-20 0 0 2.71011e-21 0 0 
2.26699e-21 0 -1.29218e-20 0 0 -2.26699e-21 0 0 
2.18838e-21 0 1.24738e-20 0 0 2.18838e-21 0 0 
2.65062e-21 0 1.55061e-20 0 0 2.65062e-21 0 0 
2.15371e-21 0 0 -1.25992e-20 0 0 -2.15371e-21 0 
2.24943e-21 0 -1.31592e-20 0 0 -2.24943e-21 0 0 
2.2096e-21 0 1.29262e-20 0 0 2.2096e-21 0 0 
2.19274e-21 0 1.28275e-20 0 0 2.19274e-21 0 0 
2.22264e-21 0 -1.30024e-20 0 0 -2.22264e-21 0 0 
2.19337e-21 0 0 -1.28312e-20 0 0 -2.19337e-21 0 
2.1873e-21 0 0 1.27957e-20 0 0 2.1873e-21 0 
2.1945e-21 0 0 1.28378e-20 0 0 2.1945e-21 0 
2.13743e-21 0 0 -1.2504e-20 0 0 -2.13743e-21 0 
2.68583e-21 0 -1.53092e-20 0 0 -2.68583e-21 0 0 
2.10839e-21 0 1.20178e-20 0 0 2.10839e-21 0 0 
2.14006e-21 0 0 -1.25193e-20 0 0 -2.14006e-21 0 
2.26377e-21 0 0 1.32431e-20 0 0 2.26377e-21 0 
2.15642e-21 0 -6.30753e-21 0 0 -2.15642e-21 0 0 
2.73044e-21 0 -1.59731e-20 0 0 -2.73044e-21 0 0 
2.74625e-21 0 1.60656e-20 0 0 2.74625e-21 0 0 
2.68564e-21 0 -1.5711e-20 0 0 -2.68564e-21 0 0 
2.7541e-21 0 1.61115e-20 0 0 2.7541e-21 0 0 
2.64138e-21 0 -1.50559e-20 0 0 -2.64138e-21 0 0 
2.20404e-21 0 1.2563e-20 0 0 2.20404e-21 0 0 
2.6222e-21 0 0 -1.53399e-20 0 0 -2.6222e-21 0 
2.63411e-21 0 0 1.54096e-20 0 0 2.63411e-21 0 
2.23201e-21 0 1.27225e-20 0 0 2.23201e-21 0 0 
2.77066e-21 0 -1.57927e-20 0 0 -2.77066e-21 0 0 
2.73038e-21 0 0 1.55632e-20 0 0 2.73038e-21 0 
2.70554e-21 0 0 -1.54216e-20 0 0 -2.70554e-21 0 
2.69298e-21 0 0 1.5754e-20 0 0 2.69298e-21 0 
2.21079e-21 0 6.46657e-21 0 0 2.21079e-21 0 0 
2.21579e-21 0 -1.263e-20 0 0 -2.21579e-21 0 0 
2.76865e-21 0 1.57813e-20 0 0 2.76865e-21 0 0 
2.72492e-21 0 1.5532e-20 0 0 2.72492e-21 0 0 
2.64737e-21 0 -1.509e-20 0 0 -2.64737e-21 0 0 
2.63743e-21 0 1.50333e-20 0 0 2.63743e-21 0 0 
2.6695e-21 0 -1.52161e-20 0 0 -2.6695e-21 0 0 
2.57892e-21 0 0 -1.46998e-20 0 0 -2.57892e-21 0 
2.6558e-21 0 0 1.5138e-20 0 0 2.6558e-21 0 
2.15555e-21 0 1.22866e-20 0 0 2.15555e-21 0 0 
2.67671e-21 0 -1.52572e-20 0 0 -2.67671e-21 0 0 
2.68948e-21 0 0 -1.53301e-20 0 0 -2.68948e-21 0 
2.68261e-21 0 0 1.52909e-20 0 0 2.68261e-21 0 
2.63928e-21 0 1.50439e-20 0 0 2.63928e-21 0 0 
2.20561e-21 0 -1.2572e-20 0 0 -2.20561e-21 0 0 
2.67207e-21 0 -1.52308e-20 0 0 -2.67207e-21 0 0 
2.58103e-21 0 1.47119e-20 0 0 2.58103e-21 0 0 
2.68502e-21 0 0 -1.53046e-20 0 0 -2.68502e-21 0 
2.58342e-21 0 0 1.47255e-20 0 0 2.58342e-21 0 
2.67393e-21 0 0 -1.52414e-20 0 0 -2.67393e-21 0 
2.72649e-21 0 0 1.5541e-20 0 0 2.72649e-21 0 
2.66369e-21 0 0 1.5183e-20 0 0 2.66369e-21 0 
2.65472e-21 0 0 -1.51319e-20 0 0 -2.65472e-21 0 
2.82263e-21 0 -1.6089e-20 0 0 -2.82263e-21 0 0 
2.67634e-21 0 1.52551e-20 0 0 2.67634e-21 0 0 
2.63097e-21 0 0 1.49965e-20 0 0 2.63097e-21 0 
2.75192e-21 0 0 -1.5686e-20 0 0 -2.75192e-21 0 
2.65188e-21 0 0 -1.51157e-20 0 0 -2.65188e-21 0 
2.16528e-21 0 0 1.23421e-20 0 0 2.16528e-21 0 
2.69018e-21 0 1.5334e-20 0 0 2.69018e-21 0 0 
2.65415e-21 0 -1.51286e-20 0 0 -2.65415e-21 0 0 
2.68624e-21 0 -1.53116e-20 0 0 -2.68624e-21 0 0 
2.68719e-21 0 1.5317e-20 0 0 2.68719e-21 0 0 
2.70989e-21 0 0 1.54464e-20 0 0 2.70989e-21 0 
2.65103e-21 0 0 -1.51109e-20 0 0 -2.65103e-21 0 
2.70228e-21 0 1.5403e-20 0 0 2.70228e-21 0 0 
2.74263e-21 0 -1.5633e-20 0 0 -2.74263e-21 0 0 
2.65281e-21 0 0 1.5121e-20 0 0 2.65281e-21 0 
2.65697e-21 0 0 -1.51447e-20 0 0 -2.65697e-21 0 
1.8365e-21 -2.48913e-24 0 -1.30851e-21 -3.4935e-24 0 -1.8365e-21 1.78327e-34 
6.98321e-21 -8.56094e-23 -2.87656e-23 -1.28654e-21 -4.6354e-22 -1.55754e-22 -6.96607e-21 4.48989e-34 
3.33832e-21 -2.39274e-23 -1.05258e-23 -6.17416e-22 -1.29258e-22 -5.68614e-23 -3.33533e-21 2.89001e-34 
6.574e-21 -8.09577e-23 -5.41604e-23 -1.18967e-21 -4.45874e-22 -2.98288e-22 -6.55207e-21 -5.00888e-34 
1.51064e-21 -1.79784e-25 -5.40239e-28 -3.7766e-22 -7.19137e-25 -2.16096e-27 -1.51064e-21 -3.74486e-34 
1.22508e-21 -1.73562e-24 -9.10175e-24 -2.9426e-22 -7.22223e-24 -3.78741e-23 -1.22447e-21 -1.16873e-34 
2.25106e-21 -3.97935e-24 -1.25913e-23 -3.62874e-22 -2.46692e-23 -7.80572e-23 -2.24957e-21 4.39438e-34 
2.49349e-21 -8.13294e-24 -1.96136e-23 -4.50557e-22 -4.49597e-23 -1.08426e-22 -2.49073e-21 5.1755e-35 
4.44843e-21 -3.14166e-23 -1.4026e-23 -8.22729e-22 -1.69719e-22 -7.57714e-23 -4.44455e-21 9.24823e-34 
2.50108e-21 -1.39821e-23 -2.36584e-23 -4.49806e-22 -7.76008e-23 -1.31305e-22 -2.49643e-21 -3.71144e-34 
3.44755e-21 -3.29497e-23 -2.51942e-23 -6.26521e-22 -1.80916e-22 -1.38333e-22 -3.44002e-21 -7.34351e-35 
1.26504e-21 -1.97021e-24 -4.79196e-24 -4.13713e-22 -6.02397e-24 -1.46516e-23 -1.26494e-21 -5.8886e-34 
2.51842e-21 -7.3016e-24 -4.69581e-24 -4.15149e-22 -4.4284e-23 -2.848e-23 -2.51787e-21 -2.27125e-34 
1.92478e-21 -2.64577e-24 -9.13945e-24 -2.30627e-22 -2.20625e-23 -7.62118e-23 -1.92314e-21 4.46108e-34 
1.46961e-21 -2.55e-24 -4.14742e-24 -2.40002e-22 -1.56112e-23 -2.53907e-23 -1.4693e-21 -9.82554e-35 
7.62974e-22 -2.41996e-25 0 -1.43058e-23 -1.29046e-23 0 -7.62865e-22 1.14113e-33 
2.42209e-21 -7.82745e-24 1.27014e-23 -4.43151e-22 -4.27576e-23 6.93816e-23 -2.42072e-21 1.68034e-34 
2.15817e-21 -7.90863e-24 0 -7.68848e-22 -2.21985e-23 0 -2.15806e-21 3.82913e-34 
1.77757e-21 -2.2657e-25 5.70422e-24 -4.28216e-22 -9.40434e-25 2.36767e-23 -1.77741e-21 1.11028e-34 
1.30647e-21 -1.85094e-24 9.7065e-24 -3.13811e-22 -7.70209e-24 4.03906e-23 -1.30583e-21 3.72881e-34 
4.66825e-21 -4.4669e-23 3.84598e-23 -8.44792e-22 -2.46238e-22 2.1201e-22 -4.65693e-21 1.54827e-34 
3.28504e-21 -2.32303e-23 1.20034e-23 -6.06466e-22 -1.25715e-22 6.49586e-23 -3.28199e-21 4.41508e-34 
3.76834e-21 -3.26064e-23 4.1308e-23 -6.73944e-22 -1.81765e-22 2.30271e-22 -3.75691e-21 2.53492e-34 
2.44084e-21 -1.22068e-23 1.53923e-23 -4.45199e-22 -6.68595e-23 8.43071e-23 -2.43846e-21 -3.36975e-34 
1.51559e-21 -2.9501e-24 8.47742e-24 -2.44315e-22 -1.82884e-23 5.25535e-23 -1.51457e-21 8.29118e-35 
1.9997e-21 -3.46395e-24 3.72861e-24 -3.2964e-22 -2.10109e-23 2.26162e-23 -1.99946e-21 -2.27148e-34 
2.73964e-21 -2.56086e-23 0 -9.75996e-22 -7.18591e-23 0 -2.73869e-21 2.43942e-34 
1.61518e-21 -5.48203e-25 0 -1.15082e-21 -7.69408e-25 0 -1.61518e-21 1.48293e-34 
2.05581e-21 -3.38552e-24 1.20757e-23 -5.00024e-22 -1.39149e-23 4.96326e-23 -2.05516e-21 1.7041e-34 
5.32401e-21 -6.33492e-23 0 -9.73295e-22 -3.45794e-22 0 -5.31277e-21 -4.89135e-34 
1.88536e-21 -2.55535e-24 1.34332e-21 0 -3.58645e-24 1.88536e-21 0 -1.68941e-34 
6.63588e-21 -8.13514e-23 1.22255e-21 -2.73348e-23 -4.40485e-22 6.61959e-21 -1.48007e-22 -2.24494e-34 
2.94056e-21 -2.10765e-23 5.43852e-22 -9.27167e-24 -1.13857e-22 2.93793e-21 -5.00864e-23 -6.35802e-34 
7.42793e-21 -9.14737e-23 1.3442e-21 -6.11956e-23 -5.03791e-22 7.40315e-21 -3.37034e-22 -5.8928e-35 
1.55199e-21 -1.84706e-25 3.87998e-22 -5.55027e-28 -7.38822e-25 1.55199e-21 -2.22011e-27 -3.10289e-34 
1.62236e-21 -2.29847e-24 3.89686e-22 -1.20534e-23 -9.56435e-24 1.62156e-21 -5.01564e-23 8.90462e-35 
1.82908e-21 -3.23339e-24 2.94851e-22 -1.02309e-23 -2.00448e-23 1.82787e-21 -6.34248e-23 9.94954e-35 
2.01452e-21 -6.5707e-24 3.64011e-22 -1.58461e-23 -3.63235e-23 2.01229e-21 -8.75988e-23 -1.47871e-35 
3.93857e-21 -2.78158e-23 7.28432e-22 -1.24184e-23 -1.50267e-22 3.93514e-21 -6.70869e-23 7.22518e-36 
2.46656e-21 -1.37891e-23 4.43597e-22 -2.33318e-23 -7.65296e-23 2.46197e-21 -1.29492e-22 -2.52378e-34 
3.67092e-21 -3.50845e-23 6.67112e-22 -2.68265e-23 -1.92638e-22 3.6629e-21 -1.47296e-22 2.20305e-35 
1.46959e-21 -2.28878e-24 4.80608e-22 -5.5668e-24 -6.99802e-24 1.46948e-21 -1.70207e-23 2.69894e-34 
1.8302e-21 -5.30624e-24 3.01699e-22 -3.41255e-24 -3.21823e-23 1.8298e-21 -2.06971e-23 -7.30046e-35 
2.05047e-21 -2.81854e-24 2.45687e-22 -9.73628e-24 -2.35032e-23 2.04873e-21 -8.11886e-23 -1.11527e-35 
1.87625e-21 -3.25558e-24 3.0641e-22 -5.29501e-24 -1.99309e-23 1.87586e-21 -3.24164e-23 3.93022e-34 
6.51414e-22 -2.06612e-25 1.2214e-23 0 -1.10177e-23 6.51321e-22 0 0 
2.01579e-21 -6.51442e-24 3.68814e-22 1.05708e-23 -3.55851e-23 2.01465e-21 5.7743e-23 -3.65292e-35 
2.51905e-21 -9.23108e-24 8.97413e-22 0 -2.59104e-23 2.51892e-21 0 1.23884e-34 
1.20434e-21 -1.53506e-25 2.90125e-22 3.86472e-24 -6.37163e-25 1.20423e-21 1.60415e-23 2.22057e-34 
1.4642e-21 -2.07439e-24 3.51695e-22 1.08783e-23 -8.63192e-24 1.46347e-21 4.52666e-23 -5.00885e-34 
3.55071e-21 -3.39756e-23 6.42555e-22 2.92528e-23 -1.87291e-22 3.54209e-21 1.61256e-22 4.42363e-34 
3.05959e-21 -2.16361e-23 5.64846e-22 1.11797e-23 -1.17087e-22 3.05675e-21 6.05006e-23 5.356e-34 
3.19995e-21 -2.76883e-23 5.72291e-22 3.50773e-23 -1.54349e-22 3.19024e-21 1.95539e-22 3.28048e-34 
3.01398e-21 -1.50731e-23 5.49738e-22 1.90066e-23 -8.2559e-23 3.01105e-21 1.04104e-22 2.05115e-34 
1.69144e-21 -3.2924e-24 2.72663e-22 9.46104e-24 -2.04104e-23 1.6903e-21 5.86512e-23 4.97471e-34 
2.26476e-21 -3.9231e-24 3.73335e-22 4.22284e-24 -2.37959e-23 2.26449e-21 2.5614e-23 -2.43373e-34 
3.67127e-21 -3.4317e-23 1.30789e-21 0 -9.62954e-23 3.67001e-21 0 4.12825e-34 
1.68439e-21 -5.71693e-25 1.20013e-21 0 -8.02376e-25 1.68439e-21 0 1.68941e-35 
1.42381e-21 -2.34474e-24 3.46307e-22 8.36339e-24 -9.63717e-24 1.42336e-21 3.43746e-23 -3.62808e-34 
6.75531e-21 -8.038e-23 1.23496e-21 0 -4.38757e-22 6.74105e-21 0 -4.01529e-34 
1.86047e-21 -2.52161e-24 0 1.32558e-21 -3.53909e-24 0 1.86047e-21 -1.83958e-34 
6.49848e-21 -7.9667e-23 2.67688e-23 1.19723e-21 -4.31364e-22 1.44942e-22 6.48253e-21 -6.59e-34 
3.95413e-21 -2.83412e-23 1.24675e-23 7.31308e-22 -1.53102e-22 6.73503e-23 3.95059e-21 -5.99677e-34 
7.17933e-21 -8.84123e-23 5.91475e-23 1.29921e-21 -4.8693e-22 3.25754e-22 7.15539e-21 2.13614e-34 
1.51119e-21 -1.7985e-25 5.40436e-28 3.77798e-22 -7.194e-25 2.16174e-27 1.51119e-21 2.35391e-34 
1.59448e-21 -2.25897e-24 1.18463e-23 3.8299e-22 -9.4e-24 4.92946e-23 1.59369e-21 2.67138e-34 
2.00429e-21 -3.54312e-24 1.1211e-23 3.23095e-22 -2.19649e-23 6.95004e-23 2.00297e-21 -3.73108e-34 
2.01869e-21 -6.58431e-24 1.58789e-23 3.64765e-22 -3.63987e-23 8.77803e-23 2.01646e-21 -6.80208e-34 
3.97638e-21 -2.80828e-23 1.25376e-23 7.35424e-22 -1.51709e-22 6.77308e-23 3.97291e-21 -1.30053e-34 
2.40349e-21 -1.34365e-23 2.27353e-23 4.32254e-22 -7.45728e-23 1.26181e-22 2.39902e-21 -5.64139e-34 
4.06432e-21 -3.88444e-23 2.97014e-23 7.38605e-22 -2.13282e-22 1.63081e-22 4.05544e-21 -5.87481e-34 
1.46569e-21 -2.28271e-24 5.55204e-24 4.79334e-22 -6.97946e-24 1.69756e-23 1.46558e-21 1.79929e-34 
2.07323e-21 -6.01086e-24 3.86571e-24 3.41762e-22 -3.64558e-23 2.34455e-23 2.07278e-21 -6.40818e-34 
1.7283e-21 -2.37569e-24 8.20649e-24 2.07084e-22 -1.98103e-23 6.8432e-23 1.72683e-21 8.92216e-35 
2.21123e-21 -3.83683e-24 6.24037e-24 3.61116e-22 -2.34893e-23 3.82039e-23 2.21077e-21 1.14631e-34 
1.09571e-21 -3.4753e-25 0 2.05445e-23 -1.85323e-23 0 1.09555e-21 -7.13204e-34 
2.52833e-21 -8.17078e-24 -1.32585e-23 4.62589e-22 -4.4633e-23 -7.24249e-23 2.5269e-21 -1.38811e-34 
2.29523e-21 -8.41089e-24 0 8.17676e-22 -2.36083e-23 0 2.29511e-21 -3.04078e-34 
1.43964e-21 -1.83497e-25 -4.6198e-24 3.46809e-22 -7.6165e-25 -1.91756e-23 1.43951e-21 1.66542e-35 
1.59639e-21 -2.26167e-24 -1.18604e-23 3.83448e-22 -9.41124e-24 -4.93535e-23 1.5956e-21 -5.56538e-35 
3.93074e-21 -3.7612e-23 -3.23838e-23 7.11329e-22 -2.07337e-22 -1.78516e-22 3.92121e-21 -7.37272e-35 
3.80376e-21 -2.68985e-23 -1.38988e-23 7.02229e-22 -1.45566e-22 -7.52157e-23 3.80023e-21 -1.44757e-35 
3.72222e-21 -3.22073e-23 -4.08023e-23 6.65695e-22 -1.7954e-22 -2.27453e-22 3.71092e-21 8.64853e-34 
2.76696e-21 -1.38378e-23 -1.74489e-23 5.04683e-22 -7.57927e-23 -9.55715e-23 2.76427e-21 -3.36975e-34 
2.04418e-21 -3.979e-24 -1.14341e-23 3.29524e-22 -2.46668e-23 -7.08824e-23 2.0428e-21 4.97471e-34 
1.81795e-21 -3.14911e-24 -3.38971e-24 2.99679e-22 -1.91012e-23 -2.05606e-23 1.81773e-21 5.6787e-35 
3.01929e-21 -2.82226e-23 0 1.07562e-21 -7.91942e-23 0 3.01825e-21 6.41756e-34 
1.83265e-21 -6.22012e-25 0 1.30576e-21 -8.73e-25 0 1.83265e-21 -1.5017e-35 
1.6751e-21 -2.75857e-24 -9.83947e-24 4.07428e-22 -1.13381e-23 -4.04414e-23 1.67458e-21 1.09942e-35 
6.41809e-21 -7.63674e-23 0 1.17331e-21 -4.16854e-22 0 6.40454e-21 -1.60612e-34 
1.87666e-21 -2.54356e-24 -1.33712e-21 0 -3.5699e-24 -1.87666e-21 0 4.88052e-35 
6.96166e-21 -8.53452e-23 -1.28257e-21 2.86768e-23 -4.6211e-22 -6.94457e-21 1.55273e-22 1.6656e-34 
3.12114e-21 -2.23708e-23 -5.77248e-22 9.84103e-24 -1.20849e-22 -3.11834e-21 5.31621e-23 2.16751e-34 
6.48149e-21 -7.98185e-23 -1.17293e-21 5.33983e-23 -4.396e-22 -6.45987e-21 2.9409e-22 -8.8392e-35 
1.50544e-21 -1.79166e-25 -3.76361e-22 5.38381e-28 -7.16664e-25 -1.50544e-21 2.15352e-27 3.47737e-34 
1.34005e-21 -1.89851e-24 -3.21876e-22 9.95596e-24 -7.90004e-24 -1.33939e-21 4.14286e-23 1.33569e-34 
1.81409e-21 -3.20689e-24 -2.92434e-22 1.01471e-23 -1.98805e-23 -1.81289e-21 6.29049e-23 9.12041e-35 
1.99826e-21 -6.51767e-24 -3.61073e-22 1.57182e-23 -3.60304e-23 -1.99605e-21 8.68919e-23 3.03136e-34 
3.34361e-21 -2.36139e-23 -6.18394e-22 1.05425e-23 -1.27567e-22 -3.34069e-21 5.69527e-23 -1.9508e-34 
2.63319e-21 -1.47206e-23 -4.73563e-22 2.4908e-23 -8.16995e-23 -2.62829e-21 1.3824e-22 -1.78149e-34 
4.36877e-21 -4.17542e-23 -7.93932e-22 3.19263e-23 -2.29259e-22 -4.35922e-21 1.75297e-22 2.05618e-34 
1.39954e-21 -2.17968e-24 -4.57699e-22 5.30145e-24 -6.66445e-24 -1.39943e-21 1.62094e-23 1.43126e-34 
2.19362e-21 -6.35991e-24 -3.61608e-22 4.09019e-24 -3.85728e-23 -2.19314e-21 2.48069e-23 3.24465e-35 
1.65971e-21 -2.28141e-24 -1.98866e-22 7.88082e-24 -1.90241e-23 -1.6583e-21 6.57164e-23 -1.56138e-34 
1.8366e-21 -3.18678e-24 -2.99935e-22 5.18311e-24 -1.95097e-23 -1.83622e-21 3.17313e-23 -1.22819e-34 
3.61987e-22 -1.14813e-25 -6.78727e-24 0 -6.12249e-24 -3.61936e-22 0 7.13204e-34 
1.69851e-21 -5.48907e-24 -3.10764e-22 -8.90698e-24 -2.99841e-23 -1.69755e-21 -4.86545e-23 -3.36069e-34 
2.35387e-21 -8.62576e-24 -8.38565e-22 0 -2.42114e-23 -2.35374e-21 0 1.68932e-34 
1.78393e-21 -2.27381e-25 -4.29749e-22 -5.72463e-24 -9.438e-25 -1.78377e-21 -2.37615e-23 -2.10954e-34 
1.63567e-21 -2.31733e-24 -3.92883e-22 -1.21523e-23 -9.64283e-24 -1.63486e-21 -5.05679e-23 2.67138e-34 
5.81207e-21 -5.56138e-23 -1.05178e-21 -4.78832e-23 -3.06572e-22 -5.79797e-21 -2.63957e-22 6.04563e-34 
2.87749e-21 -2.03483e-23 -5.31226e-22 -1.05143e-23 -1.10118e-22 -2.87482e-21 -5.68997e-23 5.50076e-34 
3.08969e-21 -2.67343e-23 -5.52572e-22 -3.38687e-23 -1.4903e-22 -3.08032e-21 -1.88801e-22 1.22272e-33 
3.05896e-21 -1.52981e-23 -5.57943e-22 -1.92902e-23 -8.37912e-23 -3.05599e-21 -1.05657e-22 1.90464e-34 
2.21467e-21 -4.31087e-24 -3.57008e-22 -1.23877e-23 -2.67241e-23 -2.21318e-21 -7.67944e-23 5.96965e-34 
2.16376e-21 -3.74814e-24 -3.56685e-22 -4.03451e-24 -2.27347e-23 -2.1635e-21 -2.44717e-23 -6.48994e-35 
3.33924e-21 -3.12133e-23 -1.1896e-21 0 -8.75863e-23 -3.33809e-21 0 9.0071e-35 
1.63909e-21 -5.56319e-25 -1.16785e-21 0 -7.80798e-25 -1.63909e-21 0 -7.5085e-35 
1.64644e-21 -2.71137e-24 -4.00457e-22 -9.67113e-24 -1.11441e-23 -1.64593e-21 -3.97495e-23 -8.79534e-35 
7.33606e-21 -8.72902e-23 -1.34112e-21 0 -4.76476e-22 -7.32057e-21 0 -7.30053e-34 
1.28508e-21 0 -1.07347e-21 -1.07347e-21 0 -9.08689e-22 -9.08689e-22 6.43061e-34 
0 0 0 0 0 0 0 0 
0 0 0 0 0 0 0 0 
0 0 0 0 0 0 0 0 
0 0 0 0 0 0 0 0 
0 0 0 0 0 0 0 0 
0 0 0 0 0 0 0 0 
0 0 0 0 0 0 0 0 
0 0 0 0 0 0 0 0 
0 0 0 0 0 0 0 0 
0 0 0 0 0 0 0 0 
0 0 0 0 0 0 0 0 
0 0 0 0 0 0 0 0 
0 0 0 0 0 0 0 0 
0 0 0 0 0 0 0 0 
0 0 0 0 0 0 0 0 
0 0 0 0 0 0 0 0 
0 0 0 0 0 0 0 0 
0 0 0 0 0 0 0 0 
0 0 0 0 0 0 0 0 
0 0 0 0 0 0 0 0 
0 0 0 0 0 0 0 0 
0 0 0 0 0 0 0 0 
0 0 0 0 0 0 0 0 
0 0 0 0 0 0 0 0 
0 0 0 0 0 0 0 0 
0 0 0 0 0 0 0 0 
0 0 0 0 0 0 0 0 
0 0 0 0 0 0 0 0 
0 0 0 0 0 0 0 0 
0 0 0 0 0 0 0 0 
0 0 0 0 0 0 0 0 
0 0 0 0 0 0 0 0 
0 0 0 0 0 0 0 0 
0 0 0 0 0 0 0 0 
0 0 0 0 0 0 0 0 
0 0 0 0 0 0 0 0 
0 0 0 0 0 0 0 0 
0 0 0 0 0 0 0 0 
0 0 0 0 0 0 0 0 
0 0 0 0 0 0 0 0 
0 0 0 0 0 0 0 0 
0 0 0 0 0 0 0 0 
0 0 0 0 0 0 0 0 
0 0 0 0 0 0 0 0 
0 0 0 0 0 0 0 0 
0 0 0 0 0 0 0 0 
1.38338e-21 0 1.15558e-21 1.15558e-21 0 9.78196e-22 9.78196e-22 7.87976e-34 
1.38683e-20 -5.67502e-22 -8.60021e-23 -3.20264e-21 -2.4189e-21 -3.66573e-22 -1.36508e-20 -5.95155e-33 
1.52319e-20 -9.25142e-22 -3.37824e-22 -5.13024e-21 -2.69752e-21 -9.85024e-22 -1.49587e-20 -4.06351e-33 
1.60166e-20 -5.86118e-22 -1.03075e-22 -3.27801e-21 -2.81775e-21 -4.95531e-22 -1.5759e-20 -9.64465e-34 
3.31699e-20 -9.96317e-22 -7.9499e-22 -3.93885e-21 -7.98263e-21 -6.36957e-21 -3.15586e-20 -2.91471e-33 
4.73991e-20 -7.85761e-22 -4.64626e-22 -3.15978e-21 -1.13239e-20 -6.69592e-21 -4.55369e-20 -4.72227e-33 
4.5655e-20 -8.02806e-22 -3.17859e-22 -3.29992e-21 -1.07452e-20 -4.25441e-21 -4.41681e-20 1.30679e-33 
2.77798e-20 -4.54943e-22 -1.66445e-22 -2.05167e-21 -5.99512e-21 -2.19337e-21 -2.70363e-20 5.56937e-33 
1.30171e-20 -4.08785e-22 -1.14426e-22 -2.24547e-21 -2.3285e-21 -6.51786e-22 -1.27905e-20 3.50443e-34 
1.74252e-20 -6.06966e-22 -1.62489e-22 -3.26917e-21 -3.17708e-21 -8.50524e-22 -1.7112e-20 -1.32313e-33 
1.66685e-20 -5.35759e-22 -2.36314e-22 -2.84808e-21 -3.0713e-21 -1.3547e-21 -1.6327e-20 -1.07339e-34 
1.57039e-20 -5.23605e-22 -2.64395e-22 -2.67313e-21 -3.00455e-21 -1.51715e-21 -1.53389e-20 -5.98616e-34 
2.86573e-20 -6.63614e-22 -5.84999e-22 -3.29766e-21 -5.56998e-21 -4.91013e-21 -2.76786e-20 8.68875e-33 
1.63163e-20 -6.12382e-22 -3.53962e-22 -3.06058e-21 -3.18084e-21 -1.83855e-21 -1.58973e-20 -2.57734e-33 
2.34077e-20 -5.09839e-22 -1.7797e-22 -2.51045e-21 -4.64749e-21 -1.62231e-21 -2.28843e-20 6.19338e-33 
1.94922e-20 -5.39323e-22 -2.90961e-22 -2.54129e-21 -4.02145e-21 -2.16954e-21 -1.8949e-20 -2.89207e-34 
3.36296e-20 -5.65189e-22 -2.67968e-22 -2.30789e-21 -7.94892e-21 -3.76875e-21 -3.24586e-20 -6.99738e-33 
2.69325e-20 -4.19182e-22 -1.84314e-22 -1.88095e-21 -5.83175e-21 -2.56421e-21 -2.61682e-20 -5.06108e-33 
2.50282e-20 -7.70421e-22 -3.42753e-22 -3.49785e-21 -5.35909e-21 -2.38421e-21 -2.43312e-20 -1.76764e-34 
2.12869e-20 -5.80449e-22 -3.94506e-22 -2.61959e-21 -4.55607e-21 -3.09657e-21 -2.05617e-20 1.73216e-33 
2.04184e-20 -4.74965e-22 -4.54092e-22 -2.18712e-21 -4.24664e-21 -4.06002e-21 -1.95549e-20 2.96561e-33 
2.08056e-20 -5.51069e-22 -4.71216e-22 -2.3634e-21 -4.63786e-21 -3.96581e-21 -1.98906e-20 4.05221e-34 
2.50457e-20 -7.54476e-22 -4.49023e-22 -3.2606e-21 -5.59603e-21 -3.33045e-21 -2.41842e-20 6.64641e-34 
3.40245e-20 -5.77285e-22 -2.78145e-22 -2.38084e-21 -7.96645e-21 -3.83836e-21 -3.28553e-20 2.03023e-33 
2.91065e-20 -9.11738e-22 -5.6835e-22 -3.75364e-21 -6.79689e-21 -4.23697e-21 -2.79829e-20 3.38001e-33 
2.20159e-20 -6.05125e-22 -5.43091e-22 -2.46682e-21 -5.12917e-21 -4.60336e-21 -2.09093e-20 2.0179e-33 
1.71553e-20 -4.94242e-22 -2.28308e-22 -2.68539e-21 -3.09444e-21 -1.42943e-21 -1.68132e-20 4.30411e-33 
2.75747e-20 -6.09906e-22 -3.70508e-22 -3.24207e-21 -5.06614e-21 -3.0776e-21 -2.693e-20 4.44378e-34 
2.17991e-20 -4.80908e-22 -1.18455e-22 -2.45635e-21 -4.18366e-21 -1.0305e-21 -2.1369e-20 1.94307e-33 
2.8907e-20 -4.74434e-22 -4.78596e-22 -2.1751e-21 -6.02276e-21 -6.07559e-21 -2.76121e-20 9.64376e-33 
3.38776e-20 -4.80699e-22 -5.88594e-22 -1.78755e-21 -8.38397e-21 -1.02658e-20 -3.11771e-20 -2.09941e-33 
2.50736e-20 -7.12993e-22 -6.5549e-22 -2.81307e-21 -6.00892e-21 -5.52429e-21 -2.37078e-20 6.08671e-34 
1.76974e-20 -6.40837e-22 -4.9184e-22 -3.07673e-21 -3.56525e-21 -2.73632e-21 -1.71172e-20 -3.00609e-33 
1.65061e-20 -4.91682e-22 2.70885e-22 -2.56925e-21 -3.086e-21 1.70019e-21 -1.61257e-20 -1.14164e-33 
1.77713e-20 -5.95932e-22 1.26348e-22 -3.3386e-21 -3.12061e-21 6.61623e-22 -1.74826e-20 -2.74541e-33 
1.89681e-20 -6.60897e-22 2.17842e-22 -3.5425e-21 -3.47237e-21 1.14455e-21 -1.86124e-20 1.65134e-33 
2.0203e-20 -4.3072e-22 1.53934e-22 -2.17238e-21 -3.91972e-21 1.40086e-21 -1.97695e-20 1.70399e-34 
2.60228e-20 -7.83016e-22 3.56143e-22 -3.6345e-21 -5.45563e-21 2.48141e-21 -2.53232e-20 2.83287e-33 
3.06784e-20 -4.50426e-22 2.26852e-22 -1.90978e-21 -6.99575e-21 3.52333e-21 -2.96616e-20 5.60858e-33 
2.27164e-20 -9.58612e-22 2.80159e-22 -5.40495e-21 -3.96186e-21 1.15787e-21 -2.23382e-20 6.71048e-33 
1.77074e-20 -7.2958e-22 1.53035e-22 -4.07275e-21 -3.12021e-21 6.54486e-22 -1.7418e-20 -1.22978e-33 
2.94159e-20 -5.84183e-22 6.41943e-22 -2.24574e-21 -7.1374e-21 7.84309e-21 -2.74379e-20 -6.01335e-33 