ITEM: TIMESTEP
70
ITEM: NUMBER OF SURFS
6916
ITEM: BOX BOUNDS oo rr rr
-20 20
-20 20
-20 20
ITEM: SURFS f_save[1] f_save[2] f_save[3] f_save[4] f_save[5] f_save[6] f_save[7] f_save[8] 
4.51552e-22 -3.38805e-23 0 0 -4.51552e-22 0 0 0 
1.04976e-24 0 0 -3.15037e-24 0 0 -1.04976e-24 0 
0 0 0 0 0 0 0 0 
1.23248e-18 -3.00418e-20 0 0 -1.23248e-18 0 0 1.14872e-30 
1.15129e-18 -1.43912e-21 0 0 -1.15129e-18 0 0 0 
1.41453e-18 -1.76817e-21 0 0 -1.41453e-18 0 0 0 
9.43003e-19 -1.17875e-21 0 0 -9.43003e-19 0 0 0 
1.1886e-18 -2.89721e-20 0 0 -1.1886e-18 0 0 1.09122e-30 
1.12462e-18 -2.67097e-20 0 0 -1.12462e-18 0 0 0 
1.22474e-18 -2.90876e-20 0 0 -1.22474e-18 0 0 0 
1.28689e-18 -3.05636e-20 0 0 -1.28689e-18 0 0 0 
1.28314e-18 -3.04745e-20 0 0 -1.28314e-18 0 0 0 
1.29815e-18 -3.16423e-20 0 0 -1.29815e-18 0 0 0 
1.26034e-18 -2.99332e-20 0 0 -1.26034e-18 0 0 0 
1.21168e-18 -2.87774e-20 0 0 -1.21168e-18 0 0 0 
1.26003e-18 -3.07134e-20 0 0 -1.26003e-18 0 0 0 
1.17169e-18 -2.85598e-20 0 0 -1.17169e-18 0 0 1.09094e-30 
1.36402e-18 -3.23956e-20 0 0 -1.36402e-18 0 0 1.25518e-30 
1.22291e-18 -2.90441e-20 0 0 -1.22291e-18 0 0 0 
1.22383e-18 -2.98308e-20 0 0 -1.22383e-18 0 0 1.1351e-30 
1.18939e-18 -2.82479e-20 0 0 -1.18939e-18 0 0 0 
1.23257e-18 -2.92735e-20 0 0 -1.23257e-18 0 0 0 
1.18781e-18 -2.89529e-20 0 0 -1.18781e-18 0 0 0 
1.23966e-18 -2.9442e-20 0 0 -1.23966e-18 0 0 0 
1.31277e-18 -3.11783e-20 0 0 -1.31277e-18 0 0 0 
1.28974e-18 -3.06314e-20 0 0 -1.28974e-18 0 0 0 
1.164e-18 -1.455e-21 0 0 -1.164e-18 0 0 0 
1.14141e-18 -2.71084e-20 0 0 -1.14141e-18 0 0 0 
1.27698e-18 -3.03282e-20 0 0 -1.27698e-18 0 0 0 
1.13986e-18 -1.42482e-21 0 0 -1.13986e-18 0 0 0 
1.16424e-18 -2.76508e-20 0 0 -1.16424e-18 0 0 0 
1.30028e-18 -3.08817e-20 0 0 -1.30028e-18 0 0 0 
1.93167e-18 -2.4146e-21 0 0 -1.93167e-18 0 0 0 
1.26871e-18 -3.09248e-20 0 0 -1.26871e-18 0 0 1.16727e-30 
1.30477e-18 -3.09883e-20 0 0 -1.30477e-18 0 0 0 
1.72999e-18 -2.1625e-21 0 0 -1.72999e-18 0 0 0 
1.26885e-18 -3.09282e-20 0 0 -1.26885e-18 0 0 1.1691e-30 
1.18355e-18 -2.81094e-20 0 0 -1.18355e-18 0 0 0 
1.68054e-18 -2.10069e-21 0 0 -1.68054e-18 0 0 0 
1.09957e-18 -2.6115e-20 0 0 -1.09957e-18 0 0 0 
1.23074e-18 -2.99994e-20 0 0 -1.23074e-18 0 0 0 
1.3006e-18 -1.62576e-21 0 0 -1.3006e-18 0 0 0 
1.15954e-18 -2.75393e-20 0 0 -1.15954e-18 0 0 0 
1.28344e-18 -3.12838e-20 0 0 -1.28344e-18 0 0 0 
1.28145e-18 -1.60181e-21 0 0 -1.28145e-18 0 0 0 
1.2511e-18 -2.97137e-20 0 0 -1.2511e-18 0 0 0 
1.23279e-18 -2.92789e-20 0 0 -1.23279e-18 0 0 0 
1.40423e-18 -1.75529e-21 0 0 -1.40423e-18 0 0 0 
1.2472e-18 -1.55901e-21 0 0 -1.2472e-18 0 0 0 
1.16961e-18 -1.46201e-21 0 0 -1.16961e-18 0 0 0 
1.26035e-18 -2.99333e-20 0 0 -1.26035e-18 0 0 1.16743e-30 
1.21627e-18 -2.88866e-20 0 0 -1.21627e-18 0 0 0 
1.25953e-18 -2.9914e-20 0 0 -1.25953e-18 0 0 1.15432e-30 
1.61454e-18 -2.01817e-21 0 0 -1.61454e-18 0 0 0 
1.24311e-18 -2.95238e-20 0 0 -1.24311e-18 0 0 0 
1.24621e-18 -2.95976e-20 0 0 -1.24621e-18 0 0 0 
1.31389e-18 -3.12048e-20 0 0 -1.31389e-18 0 0 0 
1.5631e-18 -1.95388e-21 0 0 -1.5631e-18 0 0 0 
1.32661e-18 -3.15068e-20 0 0 -1.32661e-18 0 0 0 
1.25842e-18 -2.98875e-20 0 0 -1.25842e-18 0 0 0 
1.22881e-18 -2.91843e-20 0 0 -1.22881e-18 0 0 0 
1.4708e-18 -1.83852e-21 0 0 -1.4708e-18 0 0 0 
1.19884e-18 -2.84725e-20 0 0 -1.19884e-18 0 0 0 
1.1575e-18 -2.8214e-20 0 0 -1.1575e-18 0 0 1.0678e-30 
1.37034e-18 -1.71294e-21 0 0 -1.37034e-18 0 0 0 
1.1649e-18 -2.76665e-20 0 0 -1.1649e-18 0 0 0 
1.16566e-18 -2.76844e-20 0 0 -1.16566e-18 0 0 0 
1.47005e-18 -1.83757e-21 0 0 -1.47005e-18 0 0 0 
1.17358e-18 -2.78727e-20 0 0 -1.17358e-18 0 0 0 
1.22526e-18 -2.91e-20 0 0 -1.22526e-18 0 0 0 
1.57477e-18 -1.96846e-21 0 0 -1.57477e-18 0 0 0 
1.34159e-18 -3.18627e-20 0 0 -1.34159e-18 0 0 0 
1.19048e-18 -2.8274e-20 0 0 -1.19048e-18 0 0 0 
1.156e-18 -1.445e-21 0 0 -1.156e-18 0 0 0 
1.59009e-18 -1.98762e-21 0 0 -1.59009e-18 0 0 0 
1.35212e-18 -3.21129e-20 0 0 -1.35212e-18 0 0 0 
1.31724e-18 -3.12844e-20 0 0 -1.31724e-18 0 0 0 
1.60108e-18 -2.00135e-21 0 0 -1.60108e-18 0 0 0 
1.26112e-18 -2.99516e-20 0 0 -1.26112e-18 0 0 0 
1.27502e-18 -3.02817e-20 0 0 -1.27502e-18 0 0 0 
1.15294e-18 -2.73824e-20 0 0 -1.15294e-18 0 0 0 
1.22858e-18 -2.91788e-20 0 0 -1.22858e-18 0 0 0 
1.23239e-18 -2.92693e-20 0 0 -1.23239e-18 0 0 0 
1.24318e-18 -3.03025e-20 0 0 -1.24318e-18 0 0 0 
1.22539e-18 -3.06348e-20 0 0 -1.22539e-18 0 0 0 
1.20522e-18 -3.01304e-20 0 0 -1.20522e-18 0 0 0 
1.15306e-18 -2.88265e-20 0 0 -1.15306e-18 0 0 0 
1.25348e-18 -3.13371e-20 0 0 -1.25348e-18 0 0 0 
1.2283e-18 -1.05633e-18 0 0 -1.2283e-18 0 0 1.13171e-30 
1.23351e-18 -5.85919e-19 0 0 -1.23351e-18 0 0 1.13728e-30 
1.228e-18 -5.83299e-19 0 0 -1.228e-18 0 0 0 
1.21834e-18 -5.7871e-19 0 0 -1.21834e-18 0 0 0 
1.22185e-18 -5.95651e-19 0 0 -1.22185e-18 0 0 0 
1.23524e-18 -1.06231e-18 0 0 -1.23524e-18 0 0 1.14019e-30 
1.23604e-18 -5.87119e-19 0 0 -1.23604e-18 0 0 0 
1.22203e-18 -5.80466e-19 0 0 -1.22203e-18 0 0 0 
1.23613e-18 -5.87161e-19 0 0 -1.23613e-18 0 0 0 
1.21376e-18 -5.91708e-19 0 0 -1.21376e-18 0 0 0 
1.25105e-18 -3.12764e-20 0 0 -1.25105e-18 0 0 1.15177e-30 
1.16293e-18 -2.90734e-20 0 0 -1.16293e-18 0 0 0 
1.34089e-18 -3.35224e-20 0 0 -1.34089e-18 0 0 1.22737e-30 
2.32662e-21 0 0 -1.36107e-20 0 0 -2.32662e-21 0 
0 0 0 0 0 0 0 0 
0 0 0 0 0 0 0 0 
0 0 0 0 0 0 0 0 
0 0 0 0 0 0 0 0 
0 0 0 0 0 0 0 0 
0 0 0 0 0 0 0 0 
0 0 0 0 0 0 0 0 
0 0 0 0 0 0 0 0 
0 0 0 0 0 0 0 0 
0 0 0 0 0 0 0 0 
0 0 0 0 0 0 0 0 
0 0 0 0 0 0 0 0 
0 0 0 0 0 0 0 0 
0 0 0 0 0 0 0 0 
0 0 0 0 0 0 0 0 
0 0 0 0 0 0 0 0 
0 0 0 0 0 0 0 0 
0 0 0 0 0 0 0 0 
0 0 0 0 0 0 0 0 
0 0 0 0 0 0 0 0 
0 0 0 0 0 0 0 0 
0 0 0 0 0 0 0 0 
0 0 0 0 0 0 0 0 
0 0 0 0 0 0 0 0 
0 0 0 0 0 0 0 0 
0 0 0 0 0 0 0 0 
0 0 0 0 0 0 0 0 
0 0 0 0 0 0 0 0 
0 0 0 0 0 0 0 0 
0 0 0 0 0 0 0 0 
0 0 0 0 0 0 0 0 
0 0 0 0 0 0 0 0 
0 0 0 0 0 0 0 0 
0 0 0 0 0 0 0 0 
0 0 0 0 0 0 0 0 
0 0 0 0 0 0 0 0 
0 0 0 0 0 0 0 0 
0 0 0 0 0 0 0 0 
0 0 0 0 0 0 0 0 
0 0 0 0 0 0 0 0 
0 0 0 0 0 0 0 0 
0 0 0 0 0 0 0 0 
0 0 0 0 0 0 0 0 
0 0 0 0 0 0 0 0 
0 0 0 0 0 0 0 0 
0 0 0 0 0 0 0 0 
0 0 0 0 0 0 0 0 
0 0 0 0 0 0 0 0 
0 0 0 0 0 0 0 0 
0 0 0 0 0 0 0 0 
0 0 0 0 0 0 0 0 
0 0 0 0 0 0 0 0 
0 0 0 0 0 0 0 0 
0 0 0 0 0 0 0 0 
0 0 0 0 0 0 0 0 
0 0 0 0 0 0 0 0 
0 0 0 0 0 0 0 0 
0 0 0 0 0 0 0 0 
0 0 0 0 0 0 0 0 
0 0 0 0 0 0 0 0 
0 0 0 0 0 0 0 0 
0 0 0 0 0 0 0 0 
0 0 0 0 0 0 0 0 
0 0 0 0 0 0 0 0 
0 0 0 0 0 0 0 0 
0 0 0 0 0 0 0 0 
0 0 0 0 0 0 0 0 
0 0 0 0 0 0 0 0 
0 0 0 0 0 0 0 0 
0 0 0 0 0 0 0 0 
0 0 0 0 0 0 0 0 
0 0 0 0 0 0 0 0 
0 0 0 0 0 0 0 0 
0 0 0 0 0 0 0 0 
0 0 0 0 0 0 0 0 
0 0 0 0 0 0 0 0 
0 0 0 0 0 0 0 0 
0 0 0 0 0 0 0 0 
0 0 0 0 0 0 0 0 
0 0 0 0 0 0 0 0 
0 0 0 0 0 0 0 0 
0 0 0 0 0 0 0 0 
2.15863e-19 -2.26655e-19 -2.77594e-19 -2.77594e-19 -1.07932e-19 -1.32189e-19 -1.32189e-19 -7.07432e-32 
1.51289e-21 0 0 -2.23725e-19 0 0 -1.51289e-21 0 
4.29824e-22 0 8.70764e-20 -8.70764e-20 0 3.03932e-22 -3.03932e-22 -1.86543e-35 
2.15327e-19 -2.26091e-19 2.76904e-19 2.76904e-19 -1.07663e-19 1.3186e-19 1.3186e-19 -7.09684e-32 
1.53802e-21 0 0 2.27441e-19 0 0 1.53802e-21 0 
1.51536e-21 0 -1.38226e-19 1.38226e-19 0 -1.07152e-21 1.07152e-21 9.32972e-35 
1.76863e-21 0 -1.03465e-20 0 0 -1.76863e-21 0 0 
1.78744e-21 0 1.04566e-20 0 0 1.78744e-21 0 0 
1.72234e-21 0 0 -9.81731e-21 0 0 -1.72234e-21 0 
1.77364e-21 0 0 1.01098e-20 0 0 1.77364e-21 0 
1.78343e-21 0 0 -1.01656e-20 0 0 -1.78343e-21 0 
1.70829e-21 0 0 9.73728e-21 0 0 1.70829e-21 0 
1.83071e-21 0 0 1.04351e-20 0 0 1.83071e-21 0 
1.78225e-21 0 0 -1.01588e-20 0 0 -1.78225e-21 0 
1.7285e-21 0 0 -9.85242e-21 0 0 -1.7285e-21 0 
1.70166e-21 0 0 9.69946e-21 0 0 1.70166e-21 0 
1.75053e-21 0 0 -9.97803e-21 0 0 -1.75053e-21 0 
1.69813e-21 0 0 9.67936e-21 0 0 1.69813e-21 0 
1.81272e-21 0 -1.03325e-20 0 0 -1.81272e-21 0 0 
1.77384e-21 0 1.01109e-20 0 0 1.77384e-21 0 0 
1.72497e-21 0 0 -9.83236e-21 0 0 -1.72497e-21 0 
1.82448e-21 0 0 1.03995e-20 0 0 1.82448e-21 0 
1.82967e-21 0 -1.04291e-20 0 0 -1.82967e-21 0 0 
1.84653e-21 0 1.05252e-20 0 0 1.84653e-21 0 0 
1.76685e-21 0 -1.00711e-20 0 0 -1.76685e-21 0 0 
1.74179e-21 0 9.92818e-21 0 0 1.74179e-21 0 0 
1.74802e-21 0 1.02259e-20 0 0 1.74802e-21 0 0 
1.85195e-21 0 -1.08339e-20 0 0 -1.85195e-21 0 0 
1.69593e-21 0 9.9212e-21 0 0 1.69593e-21 0 0 
1.75732e-21 0 -1.02803e-20 0 0 -1.75732e-21 0 0 
1.6735e-21 0 -9.53895e-21 0 0 -1.6735e-21 0 0 
1.73867e-21 0 9.9104e-21 0 0 1.73867e-21 0 0 
1.75363e-21 0 1.02588e-20 0 0 1.75363e-21 0 0 
1.77589e-21 0 -5.19448e-21 0 0 -1.77589e-21 0 0 
1.74148e-21 0 0 5.09382e-21 0 0 1.74148e-21 0 
1.7566e-21 0 0 -1.00126e-20 0 0 -1.7566e-21 0 
2.42179e-21 0 0 1.38042e-20 0 0 2.42179e-21 0 
1.76379e-21 0 0 1.03182e-20 0 0 1.76379e-21 0 
1.69868e-21 0 0 -9.9373e-21 0 0 -1.69868e-21 0 
1.73118e-21 0 -9.86775e-21 0 0 -1.73118e-21 0 0 
1.76797e-21 0 1.00774e-20 0 0 1.76797e-21 0 0 
1.79195e-21 0 -1.02141e-20 0 0 -1.79195e-21 0 0 
1.71974e-21 0 9.80251e-21 0 0 1.71974e-21 0 0 
1.74862e-21 0 0 9.96714e-21 0 0 1.74862e-21 0 
1.783e-21 0 0 -1.01631e-20 0 0 -1.783e-21 0 
1.69165e-21 0 -9.64241e-21 0 0 -1.69165e-21 0 0 
1.79188e-21 0 1.02137e-20 0 0 1.79188e-21 0 0 
1.85563e-21 0 0 1.05771e-20 0 0 1.85563e-21 0 
1.68131e-21 0 0 -9.58347e-21 0 0 -1.68131e-21 0 
1.70005e-21 0 -9.69031e-21 0 0 -1.70005e-21 0 0 
1.76846e-21 0 1.00802e-20 0 0 1.76846e-21 0 0 
1.74176e-21 0 0 9.92801e-21 0 0 1.74176e-21 0 
2.35837e-21 0 0 -1.34427e-20 0 0 -2.35837e-21 0 
1.84819e-21 0 1.05347e-20 0 0 1.84819e-21 0 0 
1.80485e-21 0 -1.02877e-20 0 0 -1.80485e-21 0 0 
1.75668e-21 0 1.00131e-20 0 0 1.75668e-21 0 0 
1.79515e-21 0 -1.02324e-20 0 0 -1.79515e-21 0 0 
1.79591e-21 0 0 -1.02367e-20 0 0 -1.79591e-21 0 
1.82107e-21 0 0 1.03801e-20 0 0 1.82107e-21 0 
1.75162e-21 0 0 9.98421e-21 0 0 1.75162e-21 0 
2.33979e-21 0 0 -1.33368e-20 0 0 -2.33979e-21 0 
1.7412e-21 0 0 9.92483e-21 0 0 1.7412e-21 0 
2.37422e-21 0 0 -1.3533e-20 0 0 -2.37422e-21 0 
1.74184e-21 0 -9.92849e-21 0 0 -1.74184e-21 0 0 
2.43898e-21 0 1.39022e-20 0 0 2.43898e-21 0 0 
1.75955e-21 0 -1.00294e-20 0 0 -1.75955e-21 0 0 
1.75215e-21 0 9.98727e-21 0 0 1.75215e-21 0 0 
2.3329e-21 0 1.36475e-20 0 0 2.3329e-21 0 0 
1.74796e-21 0 0 -1.02256e-20 0 0 -1.74796e-21 0 
1.84599e-21 0 -1.07991e-20 0 0 -1.84599e-21 0 0 
1.76695e-21 0 1.03367e-20 0 0 1.76695e-21 0 0 
1.72665e-21 0 1.01009e-20 0 0 1.72665e-21 0 0 
1.73298e-21 0 -1.01379e-20 0 0 -1.73298e-21 0 0 
1.75471e-21 0 0 -1.02651e-20 0 0 -1.75471e-21 0 
1.79453e-21 0 0 1.0498e-20 0 0 1.79453e-21 0 
1.80157e-21 0 0 1.05392e-20 0 0 1.80157e-21 0 
1.73122e-21 0 0 -1.01277e-20 0 0 -1.73122e-21 0 
2.37701e-21 0 -1.35489e-20 0 0 -2.37701e-21 0 0 
1.70298e-21 0 9.70698e-21 0 0 1.70298e-21 0 0 
1.7075e-21 0 0 -9.98885e-21 0 0 -1.7075e-21 0 
1.81572e-21 0 0 1.0622e-20 0 0 1.81572e-21 0 
1.67205e-21 0 -4.89075e-21 0 0 -1.67205e-21 0 0 
2.39667e-21 0 -1.40205e-20 0 0 -2.39667e-21 0 0 
2.38863e-21 0 1.39735e-20 0 0 2.38863e-21 0 0 
2.39036e-21 0 -1.39836e-20 0 0 -2.39036e-21 0 0 
2.43038e-21 0 1.42177e-20 0 0 2.43038e-21 0 0 
2.32902e-21 0 -1.32754e-20 0 0 -2.32902e-21 0 0 
1.7693e-21 0 1.0085e-20 0 0 1.7693e-21 0 0 
2.33809e-21 0 0 -1.36778e-20 0 0 -2.33809e-21 0 
2.31301e-21 0 0 1.35311e-20 0 0 2.31301e-21 0 
1.75691e-21 0 1.00144e-20 0 0 1.75691e-21 0 0 
2.42526e-21 0 -1.3824e-20 0 0 -2.42526e-21 0 0 
2.38757e-21 0 0 1.36091e-20 0 0 2.38757e-21 0 
2.41022e-21 0 0 -1.37382e-20 0 0 -2.41022e-21 0 
2.37004e-21 0 0 1.38647e-20 0 0 2.37004e-21 0 
1.67086e-21 0 4.88727e-21 0 0 1.67086e-21 0 0 
1.77356e-21 0 -1.01093e-20 0 0 -1.77356e-21 0 0 
2.41504e-21 0 1.37657e-20 0 0 2.41504e-21 0 0 
2.40739e-21 0 1.37221e-20 0 0 2.40739e-21 0 0 
2.37225e-21 0 -1.35218e-20 0 0 -2.37225e-21 0 0 
2.29976e-21 0 1.31086e-20 0 0 2.29976e-21 0 0 
2.36289e-21 0 -1.34685e-20 0 0 -2.36289e-21 0 0 
2.31404e-21 0 0 -1.31901e-20 0 0 -2.31404e-21 0 
2.33303e-21 0 0 1.32983e-20 0 0 2.33303e-21 0 
1.72007e-21 0 9.8044e-21 0 0 1.72007e-21 0 0 
2.36638e-21 0 -1.34884e-20 0 0 -2.36638e-21 0 0 
2.35455e-21 0 0 -1.34209e-20 0 0 -2.35455e-21 0 
2.34769e-21 0 0 1.33819e-20 0 0 2.34769e-21 0 
2.35525e-21 0 1.34249e-20 0 0 2.35525e-21 0 0 
1.77758e-21 0 -1.01322e-20 0 0 -1.77758e-21 0 0 
2.3409e-21 0 -1.33431e-20 0 0 -2.3409e-21 0 0 
2.33558e-21 0 1.33128e-20 0 0 2.33558e-21 0 0 
2.39772e-21 0 0 -1.3667e-20 0 0 -2.39772e-21 0 
2.26739e-21 0 0 1.29241e-20 0 0 2.26739e-21 0 
2.3582e-21 0 0 -1.34418e-20 0 0 -2.3582e-21 0 
2.40987e-21 0 0 1.37363e-20 0 0 2.40987e-21 0 
2.37461e-21 0 0 1.35353e-20 0 0 2.37461e-21 0 
2.31964e-21 0 0 -1.32219e-20 0 0 -2.31964e-21 0 
2.53188e-21 0 -1.44317e-20 0 0 -2.53188e-21 0 0 
2.41619e-21 0 1.37723e-20 0 0 2.41619e-21 0 0 
2.35271e-21 0 0 1.34105e-20 0 0 2.35271e-21 0 
2.43809e-21 0 0 -1.38971e-20 0 0 -2.43809e-21 0 
2.36542e-21 0 0 -1.34829e-20 0 0 -2.36542e-21 0 
1.70026e-21 0 0 9.6915e-21 0 0 1.70026e-21 0 
2.3788e-21 0 1.35592e-20 0 0 2.3788e-21 0 0 
2.38806e-21 0 -1.3612e-20 0 0 -2.38806e-21 0 0 
2.39117e-21 0 -1.36297e-20 0 0 -2.39117e-21 0 0 
2.3837e-21 0 1.35871e-20 0 0 2.3837e-21 0 0 
2.36851e-21 0 0 1.35005e-20 0 0 2.36851e-21 0 
2.37593e-21 0 0 -1.35428e-20 0 0 -2.37593e-21 0 
2.4293e-21 0 1.3847e-20 0 0 2.4293e-21 0 0 
2.39146e-21 0 -1.36313e-20 0 0 -2.39146e-21 0 0 
2.2862e-21 0 0 1.30313e-20 0 0 2.2862e-21 0 
2.34969e-21 0 0 -1.33932e-20 0 0 -2.34969e-21 0 
1.24154e-21 -1.68273e-24 0 -8.84595e-22 -2.36173e-24 0 -1.24154e-21 1.35153e-34 
4.6183e-21 -5.66172e-23 -1.90239e-23 -8.50842e-22 -3.06559e-22 -1.03007e-22 -4.60696e-21 6.7038e-34 
2.81648e-21 -2.01871e-23 -8.88043e-24 -5.20902e-22 -1.09053e-22 -4.79729e-23 -2.81396e-21 -1.48629e-34 
3.87712e-21 -4.77461e-23 -3.1942e-23 -7.01624e-22 -2.62961e-22 -1.7592e-22 -3.86419e-21 -4.73528e-34 
9.47542e-22 -1.12769e-25 -3.38862e-28 -2.36885e-22 -4.51076e-25 -1.35545e-27 -9.47542e-22 -4.95239e-34 
4.25221e-22 -6.02429e-25 -3.1592e-24 -1.02137e-22 -2.50682e-24 -1.3146e-23 -4.25011e-22 9.77468e-51 
1.13117e-21 -1.99965e-24 -6.32719e-24 -1.82347e-22 -1.23964e-23 -3.92242e-23 -1.13042e-21 8.52818e-35 
1.48451e-21 -4.84198e-24 -1.16771e-23 -2.68241e-22 -2.6767e-23 -6.4552e-23 -1.48287e-21 9.77468e-51 
2.68745e-21 -1.89799e-23 -8.47361e-24 -4.97039e-22 -1.02533e-22 -4.57761e-23 -2.6851e-21 5.01634e-34 
1.24827e-21 -6.97836e-24 -1.18077e-23 -2.24495e-22 -3.873e-23 -6.55332e-23 -1.24595e-21 -5.72622e-34 
1.78384e-21 -1.70489e-23 -1.3036e-23 -3.24175e-22 -9.36099e-23 -7.15765e-23 -1.77994e-21 1.133e-34 
8.42393e-22 -1.31197e-24 -3.19098e-24 -2.75492e-22 -4.01138e-24 -9.75653e-24 -8.42327e-22 -4.10099e-34 
1.31824e-21 -3.82195e-24 -2.45797e-24 -2.17306e-22 -2.318e-23 -1.49076e-23 -1.31796e-21 -4.79744e-34 
8.13881e-22 -1.11875e-24 -3.86456e-24 -9.75191e-23 -9.32898e-24 -3.22257e-23 -8.13189e-22 1.7207e-34 
6.32916e-22 -1.09821e-24 -1.78617e-24 -1.03362e-22 -6.72329e-24 -1.0935e-23 -6.32786e-22 -8.42189e-35 
0 0 0 0 0 0 0 0 
1.31225e-21 -4.24081e-24 6.88145e-24 -2.40093e-22 -2.31655e-23 3.759e-23 -1.31151e-21 2.6301e-34 
1.29386e-21 -4.74136e-24 0 -4.60938e-22 -1.33084e-23 0 -1.29379e-21 2.41332e-34 
8.83556e-22 -1.12619e-25 2.83533e-24 -2.12848e-22 -4.6745e-25 1.17687e-23 -8.83478e-22 -4.28252e-35 
6.72566e-22 -9.52853e-25 4.99686e-24 -1.61548e-22 -3.965e-24 2.07929e-23 -6.72233e-22 5.7244e-35 
2.37754e-21 -2.27499e-23 1.95875e-23 -4.30252e-22 -1.25409e-22 1.07977e-22 -2.37177e-21 1.13751e-34 
1.78096e-21 -1.25942e-23 6.5076e-24 -3.28792e-22 -6.81555e-23 3.52169e-23 -1.77931e-21 6.14182e-34 
1.79651e-21 -1.55447e-23 1.9693e-23 -3.21294e-22 -8.66539e-23 1.09779e-22 -1.79105e-21 1.72545e-34 
1.34187e-21 -6.7108e-24 8.46204e-24 -2.44752e-22 -3.67566e-23 4.63486e-23 -1.34057e-21 2.44882e-34 
8.37455e-22 -1.63011e-24 4.68429e-24 -1.34999e-22 -1.01054e-23 2.9039e-23 -8.36891e-22 2.77162e-34 
1.10186e-21 -1.90868e-24 2.05451e-24 -1.81636e-22 -1.15773e-23 1.24618e-23 -1.10173e-21 -3.75489e-34 
2.00725e-21 -1.87626e-23 0 -7.15082e-22 -5.26489e-23 0 -2.00656e-21 7.23785e-35 
9.17624e-22 -3.11448e-25 0 -6.53807e-22 -4.3712e-25 0 -9.17624e-22 2.26864e-34 
9.65666e-22 -1.59027e-24 5.67227e-24 -2.34874e-22 -6.53619e-24 2.33137e-23 -9.65363e-22 -1.8376e-34 
3.73762e-21 -4.4473e-23 0 -6.83283e-22 -2.42758e-22 0 -3.72972e-21 -7.7907e-34 
1.29952e-21 -1.76132e-24 9.25906e-22 0 -2.47202e-24 1.29951e-21 0 -2.55825e-34 
4.40222e-21 -5.39682e-23 8.11032e-22 -1.81338e-23 -2.92216e-22 4.39141e-21 -9.81872e-23 7.44866e-35 
1.91691e-21 -1.37394e-23 3.54528e-22 -6.04405e-24 -7.42215e-23 1.91519e-21 -3.26505e-23 -5.3878e-34 
3.9215e-21 -4.82926e-23 7.09655e-22 -3.23076e-23 -2.65971e-22 3.90842e-21 -1.77934e-22 4.16705e-34 
7.11507e-22 -8.46779e-26 1.77877e-22 -2.54451e-28 -3.38711e-25 7.11507e-22 -1.0178e-27 -3.71429e-34 
9.21535e-22 -1.30558e-24 2.2135e-22 -6.84658e-24 -5.43276e-24 9.21079e-22 -2.84899e-23 -1.14488e-34 
1.34162e-21 -2.37167e-24 2.16271e-22 -7.50432e-24 -1.47027e-23 1.34073e-21 -4.65217e-23 -1.49243e-34 
1.21522e-21 -3.96365e-24 2.19582e-22 -9.55885e-24 -2.19114e-23 1.21387e-21 -5.28423e-23 -3.61229e-34 
2.54864e-21 -1.79996e-23 4.71367e-22 -8.03594e-24 -9.72372e-23 2.54642e-21 -4.34118e-23 -3.53002e-34 
1.40676e-21 -7.86436e-24 2.52998e-22 -1.33069e-23 -4.36473e-23 1.40414e-21 -7.38536e-23 -3.43573e-34 
2.16037e-21 -2.06476e-23 3.92602e-22 -1.57877e-23 -1.13369e-22 2.15565e-21 -8.66849e-23 1.88833e-34 
8.57815e-22 -1.33598e-24 2.80536e-22 -3.2494e-24 -4.08481e-24 8.57747e-22 -9.93514e-24 3.99583e-34 
9.2918e-22 -2.69395e-24 1.53171e-22 -1.73253e-24 -1.63387e-23 9.28977e-22 -1.05078e-23 1.04292e-35 
1.02361e-21 -1.40703e-24 1.22648e-22 -4.8604e-24 -1.17329e-23 1.02274e-21 -4.05298e-23 2.29427e-34 
1.00095e-21 -1.73681e-24 1.63465e-22 -2.82481e-24 -1.06328e-23 1.00074e-21 -1.72937e-23 8.42189e-35 
0 0 0 0 0 0 0 0 
1.09034e-21 -3.52364e-24 1.99491e-22 5.71772e-24 -1.92479e-23 1.08972e-21 3.12331e-23 -3.75729e-35 
1.50958e-21 -5.53188e-24 5.37789e-22 0 -1.55273e-23 1.5095e-21 0 -1.15839e-34 
5.6442e-22 -7.19413e-26 1.35968e-22 1.81122e-24 -2.98609e-25 5.64369e-22 7.5179e-24 -1.71301e-34 
7.94094e-22 -1.12503e-24 1.90739e-22 5.89975e-24 -4.68145e-24 7.93701e-22 2.455e-23 -4.00708e-34 
1.86961e-21 -1.78897e-23 3.38334e-22 1.54029e-23 -9.8617e-23 1.86507e-21 8.49088e-23 3.03335e-34 
2.20186e-21 -1.55706e-23 4.06495e-22 8.04554e-24 -8.42627e-23 2.19982e-21 4.35397e-23 5.58347e-35 
1.63861e-21 -1.41785e-23 2.93055e-22 1.79622e-23 -7.90379e-23 1.63364e-21 1.0013e-22 7.66865e-35 
1.53959e-21 -7.69961e-24 2.80816e-22 9.70889e-24 -4.21726e-23 1.5381e-21 5.31779e-23 3.20231e-34 
7.10279e-22 -1.38256e-24 1.14498e-22 3.97293e-24 -8.57083e-24 7.098e-22 2.46291e-23 1.49241e-34 
1.10591e-21 -1.91569e-24 1.82303e-22 2.06206e-24 -1.16198e-23 1.10578e-21 1.25076e-23 -3.12908e-34 
2.29254e-21 -2.14294e-23 8.16717e-22 0 -6.0132e-23 2.29175e-21 0 3.81193e-34 
9.86785e-22 -3.34921e-25 7.03084e-22 0 -4.70065e-25 9.86785e-22 0 4.82689e-36 
7.72038e-22 -1.2714e-24 1.87779e-22 4.53491e-24 -5.2256e-24 7.71796e-22 1.86391e-23 -1.27218e-34 
3.98528e-21 -4.74199e-23 7.28559e-22 0 -2.58843e-22 3.97686e-21 0 -6.57047e-34 
1.12593e-21 -1.52604e-24 0 8.02223e-22 -2.1418e-24 0 1.12592e-21 -8.68839e-35 
3.82609e-21 -4.69053e-23 1.57606e-23 7.04892e-22 -2.53973e-22 8.53374e-23 3.8167e-21 -5.30717e-34 
2.82609e-21 -2.0256e-23 8.91074e-24 5.2268e-22 -1.09425e-22 4.81366e-23 2.82356e-21 -4.45887e-34 
4.80992e-21 -5.92334e-23 3.96269e-23 8.70429e-22 -3.26227e-22 2.18245e-22 4.79388e-21 9.9441e-34 
9.67482e-22 -1.15142e-25 3.45993e-28 2.41871e-22 -4.60568e-25 1.38397e-27 9.67482e-22 1.78836e-34 
9.14043e-22 -1.29496e-24 6.79092e-24 2.1955e-22 -5.38858e-24 2.82583e-23 9.1359e-22 -5.7244e-35 
9.04724e-22 -1.59934e-24 5.06055e-24 1.45843e-22 -9.9148e-24 3.1372e-23 9.04125e-22 1.27923e-34 
8.8808e-22 -2.89662e-24 6.98558e-24 1.6047e-22 -1.60128e-23 3.8617e-23 8.87095e-22 -3.04193e-34 
2.43697e-21 -1.72109e-23 7.68384e-24 4.50713e-22 -9.29767e-23 4.15097e-23 2.43485e-21 3.15844e-34 
1.3299e-21 -7.43466e-24 1.25798e-23 2.39174e-22 -4.12625e-23 6.98183e-23 1.32742e-21 -4.3901e-34 
2.35768e-21 -2.25334e-23 1.72296e-23 4.2846e-22 -1.23724e-22 9.46022e-23 2.35253e-21 -3.02133e-34 
1.04758e-21 -1.63153e-24 3.96823e-24 3.42596e-22 -4.98845e-24 1.2133e-23 1.0475e-21 2.9443e-34 
9.42227e-22 -2.73177e-24 1.75686e-24 1.55321e-22 -1.65682e-23 1.06553e-23 9.42021e-22 -5.00603e-34 
1.05397e-21 -1.44878e-24 5.0046e-24 1.26287e-22 -1.2081e-23 4.17322e-23 1.05308e-21 1.14713e-34 
1.11238e-21 -1.93016e-24 3.13929e-24 1.81663e-22 -1.18165e-23 1.92189e-23 1.11215e-21 -2.10547e-35 
9.5982e-22 -3.04431e-25 0 1.79967e-23 -1.6234e-23 0 9.59683e-22 -1.83395e-34 
1.92693e-21 -6.22724e-24 -1.01048e-23 3.52555e-22 -3.40164e-23 -5.51975e-23 1.92584e-21 -2.81797e-34 
1.64486e-21 -6.0276e-24 0 5.85981e-22 -1.69187e-23 0 1.64477e-21 -5.79196e-34 
6.80183e-22 -8.66965e-26 -2.1827e-24 1.63856e-22 -3.59855e-25 -9.05983e-24 6.80122e-22 -5.71002e-35 
8.98116e-22 -1.2724e-24 -6.67259e-24 2.15725e-22 -5.29469e-24 -2.77659e-23 8.97671e-22 -8.58659e-35 
2.45954e-21 -2.35345e-23 -2.02631e-23 4.45091e-22 -1.29734e-22 -1.11701e-22 2.45357e-21 -3.03335e-34 
2.41864e-21 -1.71036e-23 -8.83764e-24 4.46516e-22 -9.25587e-23 -4.78263e-23 2.41639e-21 -1.11669e-34 
1.93335e-21 -1.67287e-23 -2.1193e-23 3.45767e-22 -9.32544e-23 -1.18141e-22 1.92748e-21 3.83433e-34 
1.26687e-21 -6.3357e-24 -7.98906e-24 2.31072e-22 -3.47021e-23 -4.3758e-23 1.26564e-21 -1.88371e-35 
8.99265e-22 -1.75043e-24 -5.03002e-24 1.44963e-22 -1.08513e-23 -3.11823e-23 8.98659e-22 4.47724e-34 
1.2413e-21 -2.15023e-24 -2.31451e-24 2.04622e-22 -1.30424e-23 -1.40389e-23 1.24115e-21 -5.21513e-35 
1.92987e-21 -1.80394e-23 0 6.87517e-22 -5.06195e-23 0 1.92921e-21 5.79028e-35 
1.1828e-21 -4.0145e-25 0 8.42745e-22 -5.63439e-25 0 1.1828e-21 2.41345e-35 
6.2668e-22 -1.03202e-24 -3.68108e-24 1.52424e-22 -4.24173e-24 -1.51297e-23 6.26483e-22 -9.89476e-35 
4.0407e-21 -4.80794e-23 0 7.38691e-22 -2.62443e-22 0 4.03217e-21 3.3791e-34 
1.20218e-21 -1.62939e-24 -8.56553e-22 0 -2.28686e-24 -1.20218e-21 0 8.2057e-35 
5.01636e-21 -6.14972e-23 -9.24178e-22 2.06636e-23 -3.32982e-22 -5.00405e-21 1.11885e-22 2.79325e-34 
1.72118e-21 -1.23366e-23 -3.1833e-22 5.42694e-24 -6.66433e-23 -1.71964e-21 2.93168e-23 -1.3005e-34 
4.24091e-21 -5.22261e-23 -7.67458e-22 3.49391e-23 -2.87635e-22 -4.22677e-21 1.92427e-22 -1.95494e-50 
1.07674e-21 -1.28145e-25 -2.69185e-22 3.85067e-28 -5.1258e-25 -1.07674e-21 1.54027e-27 1.51323e-34 
7.43658e-22 -1.05357e-24 -1.78624e-22 5.52504e-24 -4.38411e-24 -7.43289e-22 2.29907e-23 -1.00177e-34 
9.1356e-22 -1.61496e-24 -1.47267e-22 5.10998e-24 -1.00116e-23 -9.12955e-22 3.16784e-23 4.26409e-35 
1.14626e-21 -3.73872e-24 -2.07121e-22 9.0164e-24 -2.0668e-23 -1.14499e-21 4.98436e-23 -1.9012e-35 
2.30047e-21 -1.62468e-23 -4.25467e-22 7.25344e-24 -8.77687e-23 -2.29846e-21 3.91846e-23 5.57371e-35 
1.43255e-21 -8.00854e-24 -2.57636e-22 1.35509e-23 -4.44476e-23 -1.42989e-21 7.52076e-23 -1.71787e-34 
2.3134e-21 -2.21101e-23 -4.20412e-22 1.6906e-23 -1.214e-22 -2.30834e-21 9.28252e-23 -2.64366e-34 
1.05247e-21 -1.63915e-24 -3.44196e-22 3.98676e-24 -5.01175e-24 -1.05239e-21 1.21897e-23 1.05154e-34 
1.42912e-21 -4.14342e-24 -2.35584e-22 2.66472e-24 -2.51298e-23 -1.42881e-21 1.61615e-23 -2.50301e-34 
7.78144e-22 -1.06962e-24 -9.3237e-23 3.69487e-24 -8.91934e-24 -7.77482e-22 3.08107e-23 5.73567e-35 
1.07897e-21 -1.87218e-24 -1.76207e-22 3.04499e-24 -1.14616e-23 -1.07875e-21 1.86416e-23 -2.52657e-34 
4.65412e-22 -1.47617e-25 -8.72649e-24 0 -7.87177e-24 -4.65346e-22 0 9.16977e-34 
1.12787e-21 -3.64492e-24 -2.06357e-22 -5.91451e-24 -1.99104e-23 -1.12723e-21 -3.23081e-23 -3.38156e-34 
1.70386e-21 -6.24379e-24 -6.06999e-22 0 -1.75255e-23 -1.70377e-21 0 1.25493e-34 
9.89288e-22 -1.26095e-25 -2.38319e-22 -3.17462e-24 -5.23389e-25 -9.892e-22 -1.3177e-23 -3.71152e-34 
7.02199e-22 -9.94835e-25 -1.68666e-22 -5.21702e-24 -4.1397e-24 -7.01851e-22 -2.1709e-23 2.00354e-34 
2.98571e-21 -2.85693e-23 -5.40311e-22 -2.45981e-23 -1.57489e-22 -2.97847e-21 -1.35597e-22 8.53129e-34 
1.4885e-21 -1.0526e-23 -2.74799e-22 -5.43895e-24 -5.69634e-23 -1.48712e-21 -2.94338e-23 1.30281e-34 
1.38697e-21 -1.20011e-23 -2.48051e-22 -1.52038e-23 -6.69002e-23 -1.38276e-21 -8.47535e-23 5.55977e-34 
2.18955e-21 -1.09501e-23 -3.99366e-22 -1.38076e-23 -5.99763e-23 -2.18742e-21 -7.56276e-23 3.01394e-34 
1.10328e-21 -2.14753e-24 -1.7785e-22 -6.17115e-24 -1.33131e-23 -1.10253e-21 -3.82564e-23 1.91882e-34 
1.75611e-21 -3.04199e-24 -2.89485e-22 -3.2744e-24 -1.84514e-23 -1.7559e-21 -1.98612e-23 -1.25163e-34 
2.24387e-21 -2.09745e-23 -7.99379e-22 0 -5.88554e-23 -2.2431e-21 0 1.44757e-35 
1.1371e-21 -3.85938e-25 -8.10181e-22 0 -5.41667e-25 -1.1371e-21 0 -4.82689e-35 
9.8279e-22 -1.61846e-24 -2.39039e-22 -5.77286e-24 -6.65209e-24 -9.82481e-22 -2.37271e-23 -3.39249e-34 
5.03082e-21 -5.98606e-23 -9.19697e-22 0 -3.26751e-22 -5.0202e-21 0 -6.00729e-34 
2.70139e-23 0 -2.25656e-23 -2.25656e-23 0 -1.91017e-23 -1.91017e-23 2.32899e-35 
0 0 0 0 0 0 0 0 
0 0 0 0 0 0 0 0 
0 0 0 0 0 0 0 0 
0 0 0 0 0 0 0 0 
0 0 0 0 0 0 0 0 
0 0 0 0 0 0 0 0 
0 0 0 0 0 0 0 0 
0 0 0 0 0 0 0 0 
0 0 0 0 0 0 0 0 
0 0 0 0 0 0 0 0 
0 0 0 0 0 0 0 0 
0 0 0 0 0 0 0 0 
0 0 0 0 0 0 0 0 
0 0 0 0 0 0 0 0 
0 0 0 0 0 0 0 0 
0 0 0 0 0 0 0 0 
0 0 0 0 0 0 0 0 
0 0 0 0 0 0 0 0 
0 0 0 0 0 0 0 0 
0 0 0 0 0 0 0 0 
0 0 0 0 0 0 0 0 
0 0 0 0 0 0 0 0 
0 0 0 0 0 0 0 0 
0 0 0 0 0 0 0 0 
0 0 0 0 0 0 0 0 
0 0 0 0 0 0 0 0 
0 0 0 0 0 0 0 0 
0 0 0 0 0 0 0 0 
0 0 0 0 0 0 0 0 
0 0 0 0 0 0 0 0 
0 0 0 0 0 0 0 0 
0 0 0 0 0 0 0 0 
0 0 0 0 0 0 0 0 
0 0 0 0 0 0 0 0 
0 0 0 0 0 0 0 0 
0 0 0 0 0 0 0 0 
0 0 0 0 0 0 0 0 
0 0 0 0 0 0 0 0 
0 0 0 0 0 0 0 0 
0 0 0 0 0 0 0 0 
0 0 0 0 0 0 0 0 
0 0 0 0 0 0 0 0 
0 0 0 0 0 0 0 0 
0 0 0 0 0 0 0 0 
0 0 0 0 0 0 0 0 
0 0 0 0 0 0 0 0 
0 0 0 0 0 0 0 0 
2.60595e-21 -1.06637e-22 -1.61604e-23 -6.01797e-22 -4.54528e-22 -6.88815e-23 -2.56508e-21 -1.04079e-33 
2.04948e-21 -1.2448e-22 -4.5455e-23 -6.90286e-22 -3.62957e-22 -1.32537e-22 -2.01273e-21 -5.81616e-34 
7.0918e-21 -2.59521e-22 -4.56395e-23 -1.45144e-21 -1.24764e-21 -2.19411e-22 -6.97774e-21 -9.92021e-34 
8.92301e-21 -2.68019e-22 -2.1386e-22 -1.05959e-21 -2.14741e-21 -1.71348e-21 -8.48957e-21 -1.37775e-33 
2.22382e-20 -3.68654e-22 -2.17988e-22 -1.48247e-21 -5.31282e-21 -3.14151e-21 -2.13645e-20 -2.57729e-33 
2.1752e-20 -3.82491e-22 -1.51442e-22 -1.57222e-21 -5.11949e-21 -2.02698e-21 -2.10436e-20 2.30159e-34 
1.26001e-20 -2.06349e-22 -7.54946e-23 -9.30576e-22 -2.71921e-21 -9.94849e-22 -1.22629e-20 2.85518e-33 
2.50522e-21 -7.86735e-23 -2.2022e-23 -4.32156e-22 -4.48136e-22 -1.25441e-22 -2.46162e-21 4.70159e-34 
5.52732e-21 -1.92531e-22 -5.15418e-23 -1.03699e-21 -1.00778e-21 -2.69788e-22 -5.42797e-21 -1.9802e-34 
5.47237e-21 -1.75893e-22 -7.75834e-23 -9.35045e-22 -1.00833e-21 -4.44755e-22 -5.36025e-21 -4.33738e-34 
3.91912e-21 -1.30673e-22 -6.59833e-23 -6.67115e-22 -7.49825e-22 -3.78625e-22 -3.82804e-21 -3.35488e-34 
1.74175e-21 -4.03335e-23 -3.55554e-23 -2.00427e-22 -3.38536e-22 -2.98431e-22 -1.68227e-21 7.7939e-34 
5.23253e-21 -1.96386e-22 -1.13513e-22 -9.81505e-22 -1.02007e-21 -5.89611e-22 -5.09815e-21 -1.01823e-33 
1.07841e-20 -2.34887e-22 -8.19923e-23 -1.15658e-21 -2.14114e-21 -7.4741e-22 -1.0543e-20 3.04096e-33 
6.83042e-21 -1.88989e-22 -1.01958e-22 -8.90515e-22 -1.40919e-21 -7.60247e-22 -6.6401e-21 -4.61592e-34 
1.4947e-20 -2.51203e-22 -1.191e-22 -1.02576e-21 -3.53296e-21 -1.67505e-21 -1.44265e-20 -3.04725e-33 
1.28504e-20 -2.00005e-22 -8.79421e-23 -8.97463e-22 -2.78252e-21 -1.22347e-21 -1.24857e-20 -3.15786e-33 
1.2765e-20 -3.92933e-22 -1.74812e-22 -1.78399e-21 -2.73327e-21 -1.216e-21 -1.24095e-20 4.54537e-34 
4.6214e-21 -1.26016e-22 -8.56477e-23 -5.68715e-22 -9.89127e-22 -6.72267e-22 -4.46397e-21 1.88963e-34 
1.46849e-21 -3.41594e-23 -3.26582e-23 -1.57297e-22 -3.05417e-22 -2.91996e-22 -1.40639e-21 -1.53747e-34 
2.81258e-21 -7.44955e-23 -6.37006e-23 -3.19492e-22 -6.26962e-22 -5.36112e-22 -2.68888e-21 -4.34165e-34 
1.03814e-20 -3.1273e-22 -1.8612e-22 -1.35152e-21 -2.31955e-21 -1.38047e-21 -1.00244e-20 1.7856e-34 
1.16404e-20 -1.97499e-22 -9.51581e-23 -8.14527e-22 -2.72546e-21 -1.31317e-21 -1.12404e-20 4.2714e-34 
9.15594e-21 -2.86802e-22 -1.78784e-22 -1.18077e-21 -2.13807e-21 -1.33281e-21 -8.80247e-21 9.99901e-34 
3.90574e-21 -1.07353e-22 -9.63474e-23 -4.37628e-22 -9.09944e-22 -8.16662e-22 -3.70943e-21 6.99626e-34 
8.91089e-22 -2.56722e-23 -1.18589e-23 -1.39486e-22 -1.60733e-22 -7.42483e-23 -8.73322e-22 3.66053e-34 
1.15216e-21 -2.54838e-23 -1.5481e-23 -1.35464e-22 -2.11679e-22 -1.28592e-22 -1.12522e-21 2.57104e-34 
9.97424e-21 -2.20041e-22 -5.41995e-23 -1.12391e-21 -1.91425e-21 -4.71509e-22 -9.77746e-21 1.19676e-33 
7.1539e-22 -1.17413e-23 -1.18443e-23 -5.38294e-23 -1.49051e-22 -1.50359e-22 -6.83344e-22 3.05612e-34 
1.51355e-21 -2.14763e-23 -2.62967e-23 -7.98628e-23 -3.74572e-22 -4.58647e-22 -1.3929e-21 2.39933e-34 
6.55401e-21 -1.8637e-22 -1.71339e-22 -7.35311e-22 -1.57068e-21 -1.444e-21 -6.197e-21 4.92734e-34 
2.84064e-21 -1.02862e-22 -7.89462e-23 -4.93852e-22 -5.72265e-22 -4.39212e-22 -2.74751e-21 -6.5054e-34 
1.40525e-21 -4.18594e-23 2.30618e-23 -2.18734e-22 -2.62727e-22 1.44745e-22 -1.37286e-21 -2.37442e-34 
7.71745e-21 -2.58792e-22 5.48684e-23 -1.44984e-21 -1.35517e-21 2.8732e-22 -7.5921e-21 -9.90508e-34 
8.5538e-21 -2.98037e-22 9.82377e-23 -1.59752e-21 -1.56589e-21 5.16143e-22 -8.3934e-21 7.22777e-34 
7.43635e-21 -1.5854e-22 5.66604e-23 -7.99614e-22 -1.44278e-21 5.15631e-22 -7.2768e-21 -3.12977e-35 
1.37796e-20 -4.14623e-22 1.88585e-22 -1.92454e-21 -2.88887e-21 1.31396e-21 -1.34092e-20 1.46169e-33 
1.58104e-20 -2.32132e-22 1.1691e-22 -9.84225e-22 -3.60534e-21 1.81579e-21 -1.52864e-20 3.25832e-33 
1.67517e-21 -7.06908e-23 2.06597e-23 -3.98576e-22 -2.92159e-22 8.53849e-23 -1.64728e-21 1.27924e-34 
6.35504e-21 -2.61841e-22 5.49231e-23 -1.46168e-21 -1.11982e-21 2.3489e-22 -6.25119e-21 -1.08841e-33 
2.05301e-21 -4.07717e-23 4.48029e-23 -1.56736e-22 -4.98138e-22 5.4739e-22 -1.91496e-21 -7.56338e-34 
2.52627e-20 -6.50574e-22 3.67447e-22 -2.50209e-21 -6.29398e-21 3.55486e-21 -2.42065e-20 -3.52685e-33 
1.37174e-20 -3.2099e-22 2.46609e-22 -1.22184e-21 -3.42085e-21 2.62815e-21 -1.30214e-20 1.97919e-33 