ITEM: TIMESTEP
150
ITEM: NUMBER OF SURFS
6916
ITEM: BOX BOUNDS oo rr rr
-20 20
-20 20
-20 20
ITEM: SURFS f_save[1] f_save[2] f_save[3] f_save[4] f_save[5] f_save[6] f_save[7] f_save[8] 
1.87923e-18 -1.41001e-19 0 0 -1.87923e-18 0 0 0 
1.17018e-19 0 0 -3.51173e-19 0 0 -1.17018e-19 0 
0 0 0 0 0 0 0 0 
1.41366e-18 -3.4458e-20 0 0 -1.41366e-18 0 0 1.30608e-30 
1.38098e-18 -1.72623e-21 0 0 -1.38098e-18 0 0 0 
1.18434e-18 -1.48042e-21 0 0 -1.18434e-18 0 0 0 
1.33496e-18 -1.6687e-21 0 0 -1.33496e-18 0 0 0 
1.38469e-18 -3.37517e-20 0 0 -1.38469e-18 0 0 1.2727e-30 
1.3417e-18 -3.18655e-20 0 0 -1.3417e-18 0 0 0 
1.43191e-18 -3.40078e-20 0 0 -1.43191e-18 0 0 0 
1.49443e-18 -3.54929e-20 0 0 -1.49443e-18 0 0 0 
1.47153e-18 -3.49489e-20 0 0 -1.47153e-18 0 0 0 
1.46085e-18 -3.56082e-20 0 0 -1.46085e-18 0 0 0 
1.45399e-18 -3.45324e-20 0 0 -1.45399e-18 0 0 0 
1.42001e-18 -3.37251e-20 0 0 -1.42001e-18 0 0 0 
1.38316e-18 -3.37146e-20 0 0 -1.38316e-18 0 0 0 
1.4014e-18 -3.41591e-20 0 0 -1.4014e-18 0 0 1.28952e-30 
1.41916e-18 -3.37051e-20 0 0 -1.41916e-18 0 0 1.3172e-30 
1.39809e-18 -3.32048e-20 0 0 -1.39809e-18 0 0 0 
1.36652e-18 -3.3309e-20 0 0 -1.36652e-18 0 0 1.26335e-30 
1.41001e-18 -3.34878e-20 0 0 -1.41001e-18 0 0 0 
1.44408e-18 -3.42968e-20 0 0 -1.44408e-18 0 0 0 
1.43756e-18 -3.50407e-20 0 0 -1.43756e-18 0 0 0 
1.46448e-18 -3.47814e-20 0 0 -1.46448e-18 0 0 0 
1.45374e-18 -3.45262e-20 0 0 -1.45374e-18 0 0 0 
1.43179e-18 -3.4005e-20 0 0 -1.43179e-18 0 0 0 
1.54704e-18 -1.9338e-21 0 0 -1.54704e-18 0 0 0 
1.38672e-18 -3.29347e-20 0 0 -1.38672e-18 0 0 0 
1.39832e-18 -3.32101e-20 0 0 -1.39832e-18 0 0 0 
1.46934e-18 -1.83668e-21 0 0 -1.46934e-18 0 0 0 
1.30132e-18 -3.09064e-20 0 0 -1.30132e-18 0 0 0 
1.40637e-18 -3.34013e-20 0 0 -1.40637e-18 0 0 0 
1.71919e-18 -2.149e-21 0 0 -1.71919e-18 0 0 0 
1.42318e-18 -3.46899e-20 0 0 -1.42318e-18 0 0 1.30878e-30 
1.40337e-18 -3.33303e-20 0 0 -1.40337e-18 0 0 0 
1.60236e-18 -2.00296e-21 0 0 -1.60236e-18 0 0 0 
1.3973e-18 -3.40592e-20 0 0 -1.3973e-18 0 0 1.28728e-30 
1.40924e-18 -3.34696e-20 0 0 -1.40924e-18 0 0 0 
1.4958e-18 -1.86975e-21 0 0 -1.4958e-18 0 0 0 
1.33215e-18 -3.16387e-20 0 0 -1.33215e-18 0 0 0 
1.35711e-18 -3.30795e-20 0 0 -1.35711e-18 0 0 0 
1.71327e-18 -2.1416e-21 0 0 -1.71327e-18 0 0 0 
1.35235e-18 -3.21185e-20 0 0 -1.35235e-18 0 0 0 
1.41652e-18 -3.45276e-20 0 0 -1.41652e-18 0 0 0 
1.66048e-18 -2.0756e-21 0 0 -1.66048e-18 0 0 0 
1.45558e-18 -3.45701e-20 0 0 -1.45558e-18 0 0 0 
1.39622e-18 -3.31602e-20 0 0 -1.39622e-18 0 0 0 
1.77967e-18 -2.22459e-21 0 0 -1.77967e-18 0 0 0 
1.34749e-18 -1.68437e-21 0 0 -1.34749e-18 0 0 0 
1.41726e-18 -1.77158e-21 0 0 -1.41726e-18 0 0 0 
1.40782e-18 -3.34359e-20 0 0 -1.40782e-18 0 0 1.29932e-30 
1.41553e-18 -3.36189e-20 0 0 -1.41553e-18 0 0 0 
1.38545e-18 -3.29045e-20 0 0 -1.38545e-18 0 0 1.27513e-30 
1.49171e-18 -1.86464e-21 0 0 -1.49171e-18 0 0 0 
1.39857e-18 -3.32161e-20 0 0 -1.39857e-18 0 0 0 
1.44269e-18 -3.42638e-20 0 0 -1.44269e-18 0 0 0 
1.51539e-18 -3.59905e-20 0 0 -1.51539e-18 0 0 0 
1.54023e-18 -1.92529e-21 0 0 -1.54023e-18 0 0 0 
1.4725e-18 -3.49719e-20 0 0 -1.4725e-18 0 0 0 
1.46743e-18 -3.48514e-20 0 0 -1.46743e-18 0 0 0 
1.39229e-18 -3.30669e-20 0 0 -1.39229e-18 0 0 0 
1.81321e-18 -2.26653e-21 0 0 -1.81321e-18 0 0 0 
1.36613e-18 -3.24457e-20 0 0 -1.36613e-18 0 0 0 
1.30836e-18 -3.18912e-20 0 0 -1.30836e-18 0 0 1.21383e-30 
1.49664e-18 -1.87081e-21 0 0 -1.49664e-18 0 0 0 
1.31237e-18 -3.11688e-20 0 0 -1.31237e-18 0 0 0 
1.40774e-18 -3.34338e-20 0 0 -1.40774e-18 0 0 0 
1.55531e-18 -1.94415e-21 0 0 -1.55531e-18 0 0 0 
1.33677e-18 -3.17484e-20 0 0 -1.33677e-18 0 0 0 
1.40077e-18 -3.32684e-20 0 0 -1.40077e-18 0 0 0 
1.64786e-18 -2.05982e-21 0 0 -1.64786e-18 0 0 0 
1.41487e-18 -3.36031e-20 0 0 -1.41487e-18 0 0 0 
1.33588e-18 -3.17273e-20 0 0 -1.33588e-18 0 0 0 
1.35962e-18 -1.69952e-21 0 0 -1.35962e-18 0 0 0 
1.62827e-18 -2.03535e-21 0 0 -1.62827e-18 0 0 0 
1.43202e-18 -3.40104e-20 0 0 -1.43202e-18 0 0 0 
1.4584e-18 -3.46369e-20 0 0 -1.4584e-18 0 0 0 
1.48271e-18 -1.85339e-21 0 0 -1.48271e-18 0 0 0 
1.38544e-18 -3.29041e-20 0 0 -1.38544e-18 0 0 0 
1.3675e-18 -3.24782e-20 0 0 -1.3675e-18 0 0 0 
1.47188e-18 -3.49571e-20 0 0 -1.47188e-18 0 0 0 
1.38563e-18 -3.29087e-20 0 0 -1.38563e-18 0 0 0 
1.45987e-18 -3.46719e-20 0 0 -1.45987e-18 0 0 0 
1.42144e-18 -3.46477e-20 0 0 -1.42144e-18 0 0 0 
1.40481e-18 -3.51203e-20 0 0 -1.40481e-18 0 0 0 
1.38284e-18 -3.4571e-20 0 0 -1.38284e-18 0 0 0 
1.32988e-18 -3.3247e-20 0 0 -1.32988e-18 0 0 0 
1.33828e-18 -3.34571e-20 0 0 -1.33828e-18 0 0 0 
1.39925e-18 -1.20336e-18 0 0 -1.39925e-18 0 0 1.29085e-30 
1.40244e-18 -6.6616e-19 0 0 -1.40244e-18 0 0 1.2927e-30 
1.40842e-18 -6.68999e-19 0 0 -1.40842e-18 0 0 0 
1.39426e-18 -6.62273e-19 0 0 -1.39426e-18 0 0 0 
1.39192e-18 -6.78562e-19 0 0 -1.39192e-18 0 0 0 
1.41153e-18 -1.21391e-18 0 0 -1.41153e-18 0 0 1.30238e-30 
1.41401e-18 -6.71656e-19 0 0 -1.41401e-18 0 0 0 
1.3942e-18 -6.62245e-19 0 0 -1.3942e-18 0 0 0 
1.40436e-18 -6.67072e-19 0 0 -1.40436e-18 0 0 0 
1.40534e-18 -6.85101e-19 0 0 -1.40534e-18 0 0 0 
1.44111e-18 -3.60279e-20 0 0 -1.44111e-18 0 0 1.32597e-30 
1.31269e-18 -3.28173e-20 0 0 -1.31269e-18 0 0 0 
1.50328e-18 -3.75819e-20 0 0 -1.50328e-18 0 0 1.37935e-30 
3.15326e-21 0 0 -1.84466e-20 0 0 -3.15326e-21 0 
0 0 0 0 0 0 0 0 
1.90457e-20 4.52337e-22 0 0 1.90457e-20 0 0 0 
0 0 0 0 0 0 0 0 
9.50605e-21 2.25769e-22 0 0 9.50605e-21 0 0 0 
1.11515e-20 2.64848e-22 0 0 1.11515e-20 0 0 0 
9.11278e-21 2.16429e-22 0 0 9.11278e-21 0 0 0 
2.79821e-20 6.64577e-22 0 0 2.79821e-20 0 0 0 
5.91558e-21 1.40495e-22 0 0 5.91558e-21 0 0 0 
1.65512e-20 3.93091e-22 0 0 1.65512e-20 0 0 0 
3.49416e-20 4.25851e-22 0 0 3.49416e-20 0 0 0 
5.23944e-21 1.24437e-22 0 0 5.23944e-21 0 0 4.59518e-33 
7.71106e-21 1.83138e-22 0 0 7.71106e-21 0 0 0 
1.20671e-20 2.86593e-22 0 0 1.20671e-20 0 0 0 
2.48853e-20 5.91025e-22 0 0 2.48853e-20 0 0 0 
9.05922e-21 2.15156e-22 0 0 9.05922e-21 0 0 0 
1.37838e-20 3.27365e-22 0 0 1.37838e-20 0 0 0 
2.20654e-20 5.24053e-22 0 0 2.20654e-20 0 0 0 
2.68418e-20 3.35524e-23 0 0 2.68418e-20 0 0 0 
1.63596e-20 3.88541e-22 0 0 1.63596e-20 0 0 0 
1.06221e-20 2.52274e-22 0 0 1.06221e-20 0 0 0 
0 0 0 0 0 0 0 0 
1.00869e-20 2.39563e-22 0 0 1.00869e-20 0 0 0 
1.21112e-20 2.8764e-22 0 0 1.21112e-20 0 0 0 
0 0 0 0 0 0 0 0 
2.23097e-21 5.29855e-23 0 0 2.23097e-21 0 0 0 
9.93084e-21 2.35858e-22 0 0 9.93084e-21 0 0 0 
0 0 0 0 0 0 0 0 
0 0 0 0 0 0 0 0 
6.67673e-21 1.58572e-22 0 0 6.67673e-21 0 0 0 
6.09972e-21 1.44868e-22 0 0 6.09972e-21 0 0 0 
9.68602e-21 2.30043e-22 0 0 9.68602e-21 0 0 0 
1.15546e-20 2.74421e-22 0 0 1.15546e-20 0 0 0 
0 0 0 0 0 0 0 0 
7.11156e-21 1.68899e-22 0 0 7.11156e-21 0 0 0 
9.45019e-21 2.24442e-22 0 0 9.45019e-21 0 0 0 
0 0 0 0 0 0 0 0 
0 0 0 0 0 0 0 0 
1.00697e-20 2.39155e-22 0 0 1.00697e-20 0 0 0 
1.05952e-20 2.51635e-22 0 0 1.05952e-20 0 0 0 
1.0935e-20 2.59706e-22 0 0 1.0935e-20 0 0 0 
0 0 0 0 0 0 0 0 
8.79105e-21 2.08787e-22 0 0 8.79105e-21 0 0 0 
7.23089e-21 1.71734e-22 0 0 7.23089e-21 0 0 0 
0 0 0 0 0 0 0 0 
2.3357e-20 5.54728e-22 0 0 2.3357e-20 0 0 0 
1.80299e-20 4.28209e-22 0 0 1.80299e-20 0 0 0 
9.32849e-21 2.21552e-22 0 0 9.32849e-21 0 0 0 
0 0 0 0 0 0 0 0 
3.58155e-21 8.73007e-23 0 0 3.58155e-21 0 0 0 
0 0 0 0 0 0 0 0 
1.6722e-20 4.07599e-22 0 0 1.6722e-20 0 0 1.4749e-32 
2.35139e-20 5.58457e-22 0 0 2.35139e-20 0 0 0 
1.7067e-20 4.16007e-22 0 0 1.7067e-20 0 0 0 
2.91902e-20 7.11509e-22 0 0 2.91902e-20 0 0 2.83787e-32 
1.67682e-20 3.98245e-22 0 0 1.67682e-20 0 0 0 
0 0 0 0 0 0 0 0 
5.45734e-21 1.33023e-22 0 0 5.45734e-21 0 0 0 
0 0 0 0 0 0 0 0 
0 0 0 0 0 0 0 0 
0 0 0 0 0 0 0 0 
0 0 0 0 0 0 0 0 
0 0 0 0 0 0 0 0 
0 0 0 0 0 0 0 0 
1.07405e-20 2.618e-22 0 0 1.07405e-20 0 0 0 
1.57074e-20 3.73051e-22 0 0 1.57074e-20 0 0 0 
0 0 0 0 0 0 0 0 
1.74318e-20 4.249e-22 0 0 1.74318e-20 0 0 0 
1.3464e-20 3.1977e-22 0 0 1.3464e-20 0 0 0 
2.64699e-20 3.30875e-23 0 0 2.64699e-20 0 0 0 
1.44579e-20 3.52411e-22 0 0 1.44579e-20 0 0 0 
8.00073e-21 1.90018e-22 0 0 8.00073e-21 0 0 7.43339e-33 
4.79231e-21 1.16813e-22 0 0 4.79231e-21 0 0 0 
6.37142e-21 1.51322e-22 0 0 6.37142e-21 0 0 5.91292e-33 
9.19747e-21 2.18441e-22 0 0 9.19747e-21 0 0 0 
2.62323e-20 6.23019e-22 0 0 2.62323e-20 0 0 0 
2.09323e-20 4.97145e-22 0 0 2.09323e-20 0 0 0 
3.99073e-21 9.47802e-23 0 0 3.99073e-21 0 0 0 
9.07651e-21 2.15568e-22 0 0 9.07651e-21 0 0 7.77127e-33 
1.59175e-20 3.87988e-22 0 0 1.59175e-20 0 0 1.44856e-32 
5.22993e-21 1.2748e-22 0 0 5.22993e-21 0 0 0 
1.15988e-19 7.24931e-23 0 0 1.15988e-19 0 0 0 
1.34791e-20 1.64277e-22 0 0 1.34791e-20 0 0 0 
3.19806e-19 -3.35794e-19 -4.11262e-19 -4.11262e-19 -1.59903e-19 -1.9584e-19 -1.9584e-19 -1.06899e-31 
2.8957e-21 0 0 -4.28212e-19 0 0 -2.8957e-21 0 
1.96634e-21 0 3.98353e-19 -3.98353e-19 0 1.39041e-21 -1.39041e-21 -1.0032e-34 
3.21217e-19 -3.37276e-19 4.13077e-19 4.13077e-19 -1.60609e-19 1.96705e-19 1.96705e-19 -1.08211e-31 
2.91783e-21 0 0 4.31485e-19 0 0 2.91783e-21 0 
2.67552e-21 0 -2.44052e-19 2.44052e-19 0 -1.89188e-21 1.89188e-21 1.65465e-34 
3.16637e-21 0 -1.85232e-20 0 0 -3.16637e-21 0 0 
3.14741e-21 0 1.84123e-20 0 0 3.14741e-21 0 0 
2.96305e-21 0 0 -1.68894e-20 0 0 -2.96305e-21 0 
3.05085e-21 0 0 1.73899e-20 0 0 3.05085e-21 0 
3.04166e-21 0 0 -1.73375e-20 0 0 -3.04166e-21 0 
3.04497e-21 0 0 1.73564e-20 0 0 3.04497e-21 0 
3.02871e-21 0 0 1.72636e-20 0 0 3.02871e-21 0 
2.94988e-21 0 0 -1.68143e-20 0 0 -2.94988e-21 0 
2.93812e-21 0 0 -1.67473e-20 0 0 -2.93812e-21 0 
2.90459e-21 0 0 1.65562e-20 0 0 2.90459e-21 0 
2.99879e-21 0 0 -1.70931e-20 0 0 -2.99879e-21 0 
3.00253e-21 0 0 1.71144e-20 0 0 3.00253e-21 0 
3.16947e-21 0 -1.8066e-20 0 0 -3.16947e-21 0 0 
3.06607e-21 0 1.74766e-20 0 0 3.06607e-21 0 0 
3.13608e-21 0 0 -1.78757e-20 0 0 -3.13608e-21 0 
3.22938e-21 0 0 1.84075e-20 0 0 3.22938e-21 0 
3.22422e-21 0 -1.83781e-20 0 0 -3.22422e-21 0 0 
3.22736e-21 0 1.83959e-20 0 0 3.22736e-21 0 0 
3.11904e-21 0 -1.77785e-20 0 0 -3.11904e-21 0 0 
3.1401e-21 0 1.78986e-20 0 0 3.1401e-21 0 0 
3.09817e-21 0 1.81243e-20 0 0 3.09817e-21 0 0 
3.07998e-21 0 -1.80179e-20 0 0 -3.07998e-21 0 0 
2.97179e-21 0 1.7385e-20 0 0 2.97179e-21 0 0 
2.99891e-21 0 -1.75436e-20 0 0 -2.99891e-21 0 0 
3.0832e-21 0 -1.75742e-20 0 0 -3.0832e-21 0 0 
3.0354e-21 0 1.73018e-20 0 0 3.0354e-21 0 0 
3.00189e-21 0 1.75611e-20 0 0 3.00189e-21 0 0 
3.06479e-21 0 -8.96452e-21 0 0 -3.06479e-21 0 0 
3.04409e-21 0 0 8.90397e-21 0 0 3.04409e-21 0 
3.31429e-21 0 0 -1.88915e-20 0 0 -3.31429e-21 0 
3.35048e-21 0 0 1.90977e-20 0 0 3.35048e-21 0 
3.08656e-21 0 0 1.80564e-20 0 0 3.08656e-21 0 
3.04958e-21 0 0 -1.784e-20 0 0 -3.04958e-21 0 
3.14606e-21 0 -1.79326e-20 0 0 -3.14606e-21 0 0 
3.16426e-21 0 1.80363e-20 0 0 3.16426e-21 0 0 
3.26156e-21 0 -1.85909e-20 0 0 -3.26156e-21 0 0 
3.17962e-21 0 1.81238e-20 0 0 3.17962e-21 0 0 
3.18649e-21 0 0 1.8163e-20 0 0 3.18649e-21 0 
3.16913e-21 0 0 -1.80641e-20 0 0 -3.16913e-21 0 
3.2489e-21 0 -1.85187e-20 0 0 -3.2489e-21 0 0 
3.23228e-21 0 1.8424e-20 0 0 3.23228e-21 0 0 
3.14608e-21 0 0 1.79327e-20 0 0 3.14608e-21 0 
3.12108e-21 0 0 -1.77902e-20 0 0 -3.12108e-21 0 
3.07132e-21 0 -1.75065e-20 0 0 -3.07132e-21 0 0 
3.04935e-21 0 1.73813e-20 0 0 3.04935e-21 0 0 
3.12931e-21 0 0 1.78371e-20 0 0 3.12931e-21 0 
3.26709e-21 0 0 -1.86224e-20 0 0 -3.26709e-21 0 
3.15647e-21 0 1.79919e-20 0 0 3.15647e-21 0 0 
3.12357e-21 0 -1.78044e-20 0 0 -3.12357e-21 0 0 
3.05754e-21 0 1.7428e-20 0 0 3.05754e-21 0 0 
3.0493e-21 0 -1.7381e-20 0 0 -3.0493e-21 0 0 
3.1693e-21 0 0 -1.8065e-20 0 0 -3.1693e-21 0 
3.20547e-21 0 0 1.82712e-20 0 0 3.20547e-21 0 
3.1302e-21 0 0 1.78421e-20 0 0 3.1302e-21 0 
3.21356e-21 0 0 -1.83173e-20 0 0 -3.21356e-21 0 
3.22409e-21 0 0 1.83773e-20 0 0 3.22409e-21 0 
3.2592e-21 0 0 -1.85774e-20 0 0 -3.2592e-21 0 
3.19953e-21 0 -1.82373e-20 0 0 -3.19953e-21 0 0 
3.25969e-21 0 1.85802e-20 0 0 3.25969e-21 0 0 
3.18157e-21 0 -1.8135e-20 0 0 -3.18157e-21 0 0 
3.13626e-21 0 1.78767e-20 0 0 3.13626e-21 0 0 
3.19708e-21 0 1.87029e-20 0 0 3.19708e-21 0 0 
2.97847e-21 0 0 -1.7424e-20 0 0 -2.97847e-21 0 
3.05461e-21 0 -1.78695e-20 0 0 -3.05461e-21 0 0 
3.07389e-21 0 1.79823e-20 0 0 3.07389e-21 0 0 
3.08777e-21 0 1.80635e-20 0 0 3.08777e-21 0 0 
3.08881e-21 0 -1.80696e-20 0 0 -3.08881e-21 0 0 
3.06117e-21 0 0 -1.79078e-20 0 0 -3.06117e-21 0 
3.08887e-21 0 0 1.80699e-20 0 0 3.08887e-21 0 
2.9868e-21 0 0 1.74728e-20 0 0 2.9868e-21 0 
2.88151e-21 0 0 -1.68569e-20 0 0 -2.88151e-21 0 
3.26704e-21 0 -1.86222e-20 0 0 -3.26704e-21 0 0 
3.18944e-21 0 1.81798e-20 0 0 3.18944e-21 0 0 
2.98444e-21 0 0 -1.7459e-20 0 0 -2.98444e-21 0 
3.10814e-21 0 0 1.81826e-20 0 0 3.10814e-21 0 
3.00389e-21 0 -8.78638e-21 0 0 -3.00389e-21 0 0 
3.22611e-21 0 -1.88727e-20 0 0 -3.22611e-21 0 0 
3.22933e-21 0 1.88916e-20 0 0 3.22933e-21 0 0 
3.24432e-21 0 -1.89793e-20 0 0 -3.24432e-21 0 0 
3.19216e-21 0 1.86741e-20 0 0 3.19216e-21 0 0 
3.22417e-21 0 -1.83778e-20 0 0 -3.22417e-21 0 0 
3.18845e-21 0 1.81742e-20 0 0 3.18845e-21 0 0 
3.2294e-21 0 0 -1.8892e-20 0 0 -3.2294e-21 0 
3.22254e-21 0 0 1.88519e-20 0 0 3.22254e-21 0 
3.17709e-21 0 1.81094e-20 0 0 3.17709e-21 0 0 
3.33481e-21 0 -1.90084e-20 0 0 -3.33481e-21 0 0 
3.23775e-21 0 0 1.84552e-20 0 0 3.23775e-21 0 
3.23236e-21 0 0 -1.84244e-20 0 0 -3.23236e-21 0 
3.21761e-21 0 0 1.8823e-20 0 0 3.21761e-21 0 
3.00114e-21 0 8.77834e-21 0 0 3.00114e-21 0 0 
3.10408e-21 0 -1.76933e-20 0 0 -3.10408e-21 0 0 
3.29399e-21 0 1.87757e-20 0 0 3.29399e-21 0 0 
3.23247e-21 0 1.84251e-20 0 0 3.23247e-21 0 0 
3.20578e-21 0 -1.82729e-20 0 0 -3.20578e-21 0 0 
3.19307e-21 0 1.82005e-20 0 0 3.19307e-21 0 0 
3.29134e-21 0 -1.87606e-20 0 0 -3.29134e-21 0 0 
3.22725e-21 0 0 -1.83953e-20 0 0 -3.22725e-21 0 
3.20617e-21 0 0 1.82751e-20 0 0 3.20617e-21 0 
3.2109e-21 0 1.83021e-20 0 0 3.2109e-21 0 0 
3.28333e-21 0 -1.8715e-20 0 0 -3.28333e-21 0 0 
3.24686e-21 0 0 -1.85071e-20 0 0 -3.24686e-21 0 
3.23446e-21 0 0 1.84364e-20 0 0 3.23446e-21 0 
3.1791e-21 0 1.81209e-20 0 0 3.1791e-21 0 0 
3.04822e-21 0 -1.73749e-20 0 0 -3.04822e-21 0 0 
3.24362e-21 0 -1.84886e-20 0 0 -3.24362e-21 0 0 
3.19595e-21 0 1.82169e-20 0 0 3.19595e-21 0 0 
3.25563e-21 0 0 -1.85571e-20 0 0 -3.25563e-21 0 
3.19983e-21 0 0 1.8239e-20 0 0 3.19983e-21 0 
3.24583e-21 0 0 -1.85012e-20 0 0 -3.24583e-21 0 
3.34213e-21 0 0 1.90501e-20 0 0 3.34213e-21 0 
3.17561e-21 0 0 1.8101e-20 0 0 3.17561e-21 0 
3.13826e-21 0 0 -1.78881e-20 0 0 -3.13826e-21 0 
3.25268e-21 0 -1.85403e-20 0 0 -3.25268e-21 0 0 
3.19313e-21 0 1.82009e-20 0 0 3.19313e-21 0 0 
3.15081e-21 0 0 1.79596e-20 0 0 3.15081e-21 0 
3.22169e-21 0 0 -1.83636e-20 0 0 -3.22169e-21 0 
3.25919e-21 0 0 -1.85774e-20 0 0 -3.25919e-21 0 
3.21887e-21 0 0 1.83475e-20 0 0 3.21887e-21 0 
3.26985e-21 0 1.86382e-20 0 0 3.26985e-21 0 0 
3.27374e-21 0 -1.86603e-20 0 0 -3.27374e-21 0 0 
3.22716e-21 0 -1.83948e-20 0 0 -3.22716e-21 0 0 
3.24293e-21 0 1.84847e-20 0 0 3.24293e-21 0 0 
3.19996e-21 0 0 1.82398e-20 0 0 3.19996e-21 0 
3.20126e-21 0 0 -1.82472e-20 0 0 -3.20126e-21 0 
3.22425e-21 0 1.83782e-20 0 0 3.22425e-21 0 0 
3.31644e-21 0 -1.89037e-20 0 0 -3.31644e-21 0 0 
3.19659e-21 0 0 1.82206e-20 0 0 3.19659e-21 0 
3.19259e-21 0 0 -1.81977e-20 0 0 -3.19259e-21 0 
3.31389e-21 -4.49153e-24 0 -2.36115e-21 -6.30388e-24 0 -3.31389e-21 5.96925e-35 
9.80198e-21 -1.20166e-22 -4.03768e-23 -1.80585e-21 -6.50648e-22 -2.18624e-22 -9.77792e-21 1.30352e-34 
6.45958e-21 -4.62991e-23 -2.03672e-23 -1.19469e-21 -2.50111e-22 -1.10025e-22 -6.4538e-21 5.11532e-34 
1.13296e-20 -1.39523e-22 -9.33401e-23 -2.05027e-21 -7.68419e-22 -5.14069e-22 -1.12918e-20 -8.57402e-34 
3.20014e-21 -3.80856e-25 -1.14444e-27 -8.00036e-22 -1.52342e-24 -4.57777e-27 -3.20014e-21 -8.47409e-34 
3.60168e-21 -5.10266e-24 -2.67588e-23 -8.65113e-22 -2.12331e-23 -1.11349e-22 -3.5999e-21 -3.87351e-34 
3.58859e-21 -6.34378e-24 -2.00727e-23 -5.78485e-22 -3.93271e-23 -1.24437e-22 -3.58621e-21 -2.98486e-35 
3.4835e-21 -1.1362e-23 -2.7401e-23 -6.29446e-22 -6.28104e-23 -1.51476e-22 -3.47964e-21 3.9038e-34 
6.66567e-21 -4.70756e-23 -2.1017e-23 -1.2328e-21 -2.54312e-22 -1.13538e-22 -6.65985e-21 8.28006e-34 
4.23793e-21 -2.36917e-23 -4.00876e-23 -7.62167e-22 -1.31489e-22 -2.22487e-22 -4.23004e-21 -1.08226e-33 
6.37019e-21 -6.08827e-23 -4.65524e-23 -1.15765e-21 -3.34287e-22 -2.55604e-22 -6.35628e-21 2.5996e-34 
2.55101e-21 -3.97301e-24 -9.66322e-24 -8.34271e-22 -1.21476e-23 -2.95456e-23 -2.55081e-21 -5.44695e-34 
4.19649e-21 -1.21668e-23 -7.82469e-24 -6.91769e-22 -7.37912e-23 -4.74566e-23 -4.19557e-21 3.40688e-34 
4.58345e-21 -6.30033e-24 -2.17637e-23 -5.49188e-22 -5.2537e-23 -1.81482e-22 -4.57955e-21 -9.16752e-34 
2.79538e-21 -4.85043e-24 -7.88894e-24 -4.56515e-22 -2.96946e-23 -4.82965e-23 -2.79481e-21 -1.71947e-34 
2.96501e-21 -9.40425e-25 0 -5.5594e-23 -5.01488e-23 0 -2.96458e-21 6.84676e-34 
3.90156e-21 -1.26086e-23 2.04597e-23 -7.13838e-22 -6.88748e-23 1.11761e-22 -3.89935e-21 -6.04924e-34 
3.757e-21 -1.37675e-23 0 -1.33843e-21 -3.86437e-23 0 -3.7568e-21 2.70292e-34 
3.94207e-21 -5.02459e-25 1.26501e-23 -9.49644e-22 -2.08558e-24 5.25073e-23 -3.94172e-21 1.06587e-34 
3.2185e-21 -4.55979e-24 2.3912e-23 -7.73074e-22 -1.89741e-23 9.95022e-23 -3.21691e-21 4.90867e-34 
7.31954e-21 -7.00383e-23 6.03026e-23 -1.32458e-21 -3.86087e-22 3.32419e-22 -7.30179e-21 1.41556e-34 
5.26988e-21 -3.72662e-23 1.9256e-23 -9.72896e-22 -2.01672e-22 1.04207e-22 -5.26498e-21 -3.90843e-34 
6.23495e-21 -5.39493e-23 6.83465e-23 -1.11508e-21 -3.00741e-22 3.80998e-22 -6.21603e-21 6.53113e-34 
4.39057e-21 -2.19575e-23 2.76875e-23 -8.00822e-22 -1.20267e-22 1.51651e-22 -4.3863e-21 -3.03277e-34 
4.13418e-21 -8.04721e-24 2.31245e-23 -6.66436e-22 -4.98866e-23 1.43354e-22 -4.1314e-21 4.47724e-34 
3.48185e-21 -6.03138e-24 6.49219e-24 -5.73965e-22 -3.65838e-23 3.93789e-23 -3.48143e-21 4.86746e-35 
4.88969e-21 -4.57061e-23 0 -1.74195e-21 -1.28254e-22 0 -4.88801e-21 7.54345e-34 
3.10251e-21 -1.05301e-24 0 -2.21054e-21 -1.47791e-24 0 -3.10251e-21 2.872e-34 
3.33266e-21 -5.48825e-24 1.95759e-23 -8.10587e-22 -2.25574e-23 8.04592e-23 -3.33161e-21 3.13334e-34 
9.18251e-21 -1.09261e-22 0 -1.67868e-21 -5.96403e-22 0 -9.16312e-21 -9.28627e-34 
3.89959e-21 -5.28536e-24 2.77846e-21 0 -7.41804e-24 3.89959e-21 0 -2.81568e-34 
1.08244e-20 -1.327e-22 1.99421e-21 -4.45884e-23 -7.18516e-22 1.07978e-20 -2.41428e-22 2.91119e-34 
5.08159e-21 -3.64223e-23 9.3983e-22 -1.60224e-23 -1.96756e-22 5.07704e-21 -8.65542e-23 -5.37542e-34 
1.22664e-20 -1.51059e-22 2.21979e-21 -1.01058e-22 -8.31953e-22 1.22255e-20 -5.56574e-22 -5.30352e-35 
2.84524e-21 -3.38618e-25 7.11311e-22 -1.01752e-27 -1.35447e-24 2.84524e-21 -4.07009e-27 1.63704e-34 
3.92558e-21 -5.56153e-24 9.42912e-22 -2.91652e-23 -2.31426e-23 3.92363e-21 -1.21362e-22 3.37262e-34 
3.12266e-21 -5.52013e-24 5.03377e-22 -1.74665e-23 -3.4221e-23 3.1206e-21 -1.08281e-22 4.97477e-35 
4.61329e-21 -1.5047e-23 8.33591e-22 -3.62878e-23 -8.31815e-23 4.60817e-21 -2.00603e-22 -4.52486e-34 
5.47056e-21 -3.86353e-23 1.01177e-21 -1.72488e-23 -2.08716e-22 5.46578e-21 -9.31816e-23 3.29468e-34 
6.01536e-21 -3.36283e-23 1.08183e-21 -5.69008e-23 -1.86638e-22 6.00416e-21 -3.15801e-22 -1.00209e-33 
7.00832e-21 -6.69815e-23 1.27362e-21 -5.12158e-23 -3.67774e-22 6.99301e-21 -2.81209e-22 8.41566e-34 
2.8107e-21 -4.37745e-24 9.19197e-22 -1.06469e-23 -1.33842e-23 2.81047e-21 -3.25533e-23 3.18966e-34 
3.46635e-21 -1.00499e-23 5.7141e-22 -6.46329e-24 -6.09524e-23 3.46559e-21 -3.91998e-23 1.46009e-35 
3.67508e-21 -5.05171e-24 4.40348e-22 -1.74505e-23 -4.21251e-23 3.67196e-21 -1.45515e-22 -5.95554e-34 
3.22025e-21 -5.58764e-24 5.25899e-22 -9.08796e-24 -3.42078e-23 3.21958e-21 -5.5637e-23 6.14096e-34 
1.49979e-21 -4.75697e-25 2.81212e-23 0 -2.53668e-23 1.49958e-21 0 3.42338e-34 
3.92371e-21 -1.26802e-23 7.17891e-22 2.05759e-23 -6.92659e-23 3.92149e-21 1.12396e-22 -8.32866e-35 
3.73019e-21 -1.36693e-23 1.32888e-21 0 -3.8368e-23 3.73e-21 0 1.35146e-34 
3.48425e-21 -4.44104e-25 8.39354e-22 1.11809e-23 -1.84336e-24 3.48394e-21 4.64092e-23 1.89858e-34 
3.91052e-21 -5.5402e-24 9.39296e-22 2.90534e-23 -2.30538e-23 3.90859e-21 1.20897e-22 -8.28129e-34 
7.46519e-21 -7.1432e-23 1.35094e-21 6.15026e-23 -3.9377e-22 7.44708e-21 3.39034e-22 2.69842e-34 
4.70198e-21 -3.32504e-23 8.68055e-22 1.71809e-23 -1.7994e-22 4.69762e-21 9.29774e-23 9.72765e-34 
6.68559e-21 -5.78486e-23 1.19568e-21 7.32863e-23 -3.22477e-22 6.6653e-21 4.08535e-22 6.39693e-34 
5.51233e-21 -2.75675e-23 1.00543e-21 3.47615e-23 -1.50994e-22 5.50697e-21 1.90397e-22 -2.68115e-34 
4.6946e-21 -9.13808e-24 7.56777e-22 2.62592e-23 -5.66491e-23 4.69144e-21 1.62787e-22 9.50169e-34 
4.61944e-21 -8.00196e-24 7.61492e-22 8.61333e-24 -4.85366e-23 4.61889e-21 5.22449e-23 -1.26554e-34 
5.51558e-21 -5.15566e-23 1.96493e-21 0 -1.44671e-22 5.51369e-21 0 9.45746e-34 
3.30061e-21 -1.12025e-24 2.35168e-21 0 -1.57228e-24 3.30061e-21 0 1.79078e-34 
3.71979e-21 -6.12578e-24 9.04747e-22 2.18499e-23 -2.51777e-23 3.71862e-21 8.98056e-23 -1.68211e-34 
1.01894e-20 -1.21241e-22 1.86275e-21 0 -6.61799e-22 1.01679e-20 0 -6.78949e-34 
3.42663e-21 -4.64432e-24 0 2.44147e-21 -6.51833e-24 0 3.42662e-21 -2.62422e-34 
9.40015e-21 -1.1524e-22 3.87216e-23 1.73182e-21 -6.23975e-22 2.09661e-22 9.37708e-21 -6.51758e-34 
6.19821e-21 -4.44257e-23 1.95431e-23 1.14635e-21 -2.39991e-22 1.05574e-22 6.19267e-21 -4.68182e-34 
1.174e-20 -1.44577e-22 9.67212e-23 2.12454e-21 -7.96254e-22 5.32691e-22 1.17009e-20 2.03302e-34 
3.03305e-21 -3.60969e-25 1.08469e-27 7.58262e-22 -1.44388e-24 4.33875e-27 3.03305e-21 4.07655e-34 
4.11379e-21 -5.82818e-24 3.05635e-23 9.88119e-22 -2.42521e-23 1.27181e-22 4.11175e-21 3.67315e-34 
3.08195e-21 -5.44816e-24 1.72388e-23 4.96815e-22 -3.37749e-23 1.06869e-22 3.07991e-21 -1.94016e-34 
3.42817e-21 -1.11816e-23 2.69658e-23 6.19448e-22 -6.18128e-23 1.4907e-22 3.42437e-21 -1.10904e-34 
5.97918e-21 -4.22274e-23 1.88525e-23 1.10584e-21 -2.28121e-22 1.01845e-22 5.97396e-21 4.68192e-34 
4.51226e-21 -2.52254e-23 4.26827e-23 8.11505e-22 -1.40001e-22 2.3689e-22 4.50387e-21 -1.02881e-33 
6.57094e-21 -6.28013e-23 4.80195e-23 1.19413e-21 -3.44822e-22 2.6366e-22 6.55659e-21 -5.15514e-34 
3.42266e-21 -5.33054e-24 1.2965e-23 1.11933e-21 -1.62983e-23 3.9641e-23 3.42239e-21 1.34947e-34 
4.04142e-21 -1.17172e-23 7.53556e-24 6.66207e-22 -7.10645e-23 4.5703e-23 4.04054e-21 1.50876e-34 
4.67853e-21 -6.43102e-24 2.22151e-23 5.6058e-22 -5.36268e-23 1.85247e-22 4.67455e-21 -5.48713e-34 
4.4265e-21 -7.68067e-24 1.24922e-23 7.22893e-22 -4.70215e-23 7.64776e-23 4.42559e-21 9.72728e-34 
2.08761e-21 -6.62137e-25 0 3.91427e-23 -3.53089e-23 0 2.08731e-21 -5.99092e-34 
3.76247e-21 -1.21592e-23 -1.97304e-23 6.8839e-22 -6.64196e-23 -1.07777e-22 3.76034e-21 -2.67394e-34 
3.66622e-21 -1.34349e-23 0 1.30609e-21 -3.77099e-23 0 3.66602e-21 -4.27962e-35 
4.06022e-21 -5.17518e-25 -1.30292e-23 9.78106e-22 -2.14808e-24 -5.4081e-23 4.05986e-21 2.83122e-34 
3.53454e-21 -5.00754e-24 -2.626e-23 8.48986e-22 -2.08373e-23 -1.09273e-22 3.53279e-21 -5.44295e-34 
8.01943e-21 -7.67353e-23 -6.60687e-23 1.45124e-21 -4.23005e-22 -3.64205e-22 7.99998e-21 4.42363e-35 
5.64132e-21 -3.98929e-23 -2.06132e-23 1.04147e-21 -2.15887e-22 -1.11552e-22 5.63608e-21 -5.12439e-34 
6.29634e-21 -5.44805e-23 -6.90194e-23 1.12606e-21 -3.03702e-22 -3.84749e-22 6.27723e-21 1.56121e-33 
4.34437e-21 -2.17265e-23 -2.73962e-23 7.92396e-22 -1.19001e-22 -1.50055e-22 4.34014e-21 -8.17531e-34 
3.82123e-21 -7.43804e-24 -2.13739e-23 6.15987e-22 -4.61102e-23 -1.32502e-22 3.81865e-21 2.73609e-34 
3.72798e-21 -6.45773e-24 -6.95112e-24 6.14538e-22 -3.91699e-23 -4.21626e-23 3.72753e-21 -2.6771e-34 
4.84946e-21 -4.533e-23 0 1.72762e-21 -1.27198e-22 0 4.84779e-21 1.44114e-33 
3.24852e-21 -1.10257e-24 0 2.31457e-21 -1.54746e-24 0 3.24852e-21 5.18086e-35 
3.58354e-21 -5.9014e-24 -2.10495e-23 8.71608e-22 -2.42555e-23 -8.65162e-23 3.58241e-21 2.77053e-34 
9.74305e-21 -1.1593e-22 0 1.78115e-21 -6.3281e-22 0 9.72248e-21 -3.67947e-34 
3.61926e-21 -4.90541e-24 -2.57873e-21 0 -6.88478e-24 -3.61926e-21 0 -3.37882e-35 
1.0385e-20 -1.27313e-22 -1.91326e-21 4.27785e-23 -6.8935e-22 -1.03595e-20 2.31628e-22 3.21534e-34 
4.59894e-21 -3.29629e-23 -8.50565e-22 1.45006e-23 -1.78068e-22 -4.59482e-21 7.83333e-23 3.25126e-34 
1.21447e-20 -1.4956e-22 -2.19777e-21 1.00055e-22 -8.23699e-22 -1.21042e-20 5.51052e-22 -5.4803e-34 
2.68339e-21 -3.19356e-25 -6.70848e-22 9.59641e-28 -1.27742e-24 -2.68339e-21 3.83856e-27 2.08642e-34 
3.3447e-21 -4.73857e-24 -8.03386e-22 2.48495e-23 -1.97181e-23 -3.34304e-21 1.03404e-22 1.00177e-34 
3.43295e-21 -6.06864e-24 -5.53396e-22 1.92021e-23 -3.76214e-23 -3.43067e-21 1.1904e-22 -4.52704e-34 
4.74733e-21 -1.54842e-23 -8.57811e-22 3.73422e-23 -8.55983e-23 -4.74207e-21 2.06431e-22 -1.46393e-34 
5.94834e-21 -4.20096e-23 -1.10013e-21 1.87553e-23 -2.26944e-22 -5.94315e-21 1.0132e-22 3.03458e-34 
5.73163e-21 -3.20421e-23 -1.0308e-21 5.4217e-23 -1.77834e-22 -5.72096e-21 3.00905e-22 -1.23368e-33 
6.7464e-21 -6.44783e-23 -1.22602e-21 4.93017e-23 -3.54029e-22 -6.73167e-21 2.707e-22 1.8065e-34 
3.08485e-21 -4.80443e-24 -1.00886e-21 1.16854e-23 -1.46897e-23 -3.08461e-21 3.57285e-23 -2.01194e-34 
3.60868e-21 -1.04625e-23 -5.94872e-22 6.72867e-24 -6.34551e-23 -3.60789e-21 4.08093e-23 3.16353e-34 
4.71775e-21 -6.48495e-24 -5.65281e-22 2.24014e-23 -5.40765e-23 -4.71374e-21 1.868e-22 -1.09073e-33 
3.43693e-21 -5.96362e-24 -5.61286e-22 9.69947e-24 -3.65096e-23 -3.43622e-21 5.93807e-23 1.52296e-34 
4.80214e-22 -1.52312e-25 -9.00403e-24 0 -8.12212e-24 -4.80146e-22 0 5.13507e-34 
3.95199e-21 -1.27716e-23 -7.23065e-22 -2.07242e-23 -6.97652e-23 -3.94975e-21 -1.13206e-22 -4.82186e-34 
3.41666e-21 -1.25204e-23 -1.21719e-21 0 -3.51431e-23 -3.41648e-21 0 1.5767e-34 
4.00964e-21 -5.11071e-25 -9.65921e-22 -1.28669e-23 -2.12132e-24 -4.00929e-21 -5.34073e-23 1.49888e-34 
3.24699e-21 -4.60014e-24 -7.79916e-22 -2.41236e-23 -1.91421e-23 -3.24538e-21 -1.00383e-22 -1.97015e-34 
8.93002e-21 -8.54485e-23 -1.61602e-21 -7.35707e-23 -4.71036e-22 -8.90836e-21 -4.0556e-22 6.67969e-34 
5.16909e-21 -3.65536e-23 -9.5429e-22 -1.88877e-23 -1.97815e-22 -5.1643e-21 -1.02214e-22 1.14213e-33 
6.16785e-21 -5.33687e-23 -1.10308e-21 -6.76109e-23 -2.97504e-22 -6.14913e-21 -3.76897e-22 7.78368e-34 
5.25983e-21 -2.63047e-23 -9.59372e-22 -3.31692e-23 -1.44077e-22 -5.25471e-21 -1.81676e-22 -1.4065e-34 
4.06672e-21 -7.91589e-24 -6.5556e-22 -2.27471e-23 -4.90724e-23 -4.06397e-21 -1.41015e-22 1.14418e-33 
3.44328e-21 -5.96456e-24 -5.67606e-22 -6.42027e-24 -3.61786e-23 -3.44287e-21 -3.89427e-23 -2.53108e-34 
5.11392e-21 -4.78021e-23 -1.82183e-21 0 -1.34135e-22 -5.11216e-21 0 1.11238e-33 
3.58498e-21 -1.21677e-24 -2.5543e-21 0 -1.70774e-24 -3.58498e-21 0 1.48668e-34 
2.99948e-21 -4.93956e-24 -7.29549e-22 -1.76188e-23 -2.03022e-23 -2.99854e-21 -7.24154e-23 -1.35228e-34 
9.60789e-21 -1.14322e-22 -1.75644e-21 0 -6.24031e-22 -9.5876e-21 0 -5.5192e-34 
2.26098e-20 0 -1.88867e-20 -1.88867e-20 0 -1.59875e-20 -1.59875e-20 1.11994e-32 
0 0 0 0 0 0 0 0 
0 0 0 0 0 0 0 0 
0 0 0 0 0 0 0 0 
0 0 0 0 0 0 0 0 
0 0 0 0 0 0 0 0 
0 0 0 0 0 0 0 0 
0 0 0 0 0 0 0 0 
0 0 0 0 0 0 0 0 
0 0 0 0 0 0 0 0 
0 0 0 0 0 0 0 0 
0 0 0 0 0 0 0 0 
0 0 0 0 0 0 0 0 
0 0 0 0 0 0 0 0 
0 0 0 0 0 0 0 0 
0 0 0 0 0 0 0 0 
0 0 0 0 0 0 0 0 
0 0 0 0 0 0 0 0 
0 0 0 0 0 0 0 0 
0 0 0 0 0 0 0 0 
0 0 0 0 0 0 0 0 
0 0 0 0 0 0 0 0 
0 0 0 0 0 0 0 0 
0 0 0 0 0 0 0 0 
0 0 0 0 0 0 0 0 
0 0 0 0 0 0 0 0 
0 0 0 0 0 0 0 0 
0 0 0 0 0 0 0 0 
0 0 0 0 0 0 0 0 
0 0 0 0 0 0 0 0 
0 0 0 0 0 0 0 0 
0 0 0 0 0 0 0 0 
0 0 0 0 0 0 0 0 
0 0 0 0 0 0 0 0 
0 0 0 0 0 0 0 0 
0 0 0 0 0 0 0 0 
0 0 0 0 0 0 0 0 
0 0 0 0 0 0 0 0 
0 0 0 0 0 0 0 0 
0 0 0 0 0 0 0 0 
0 0 0 0 0 0 0 0 
0 0 0 0 0 0 0 0 
0 0 0 0 0 0 0 0 
0 0 0 0 0 0 0 0 
0 0 0 0 0 0 0 0 
0 0 0 0 0 0 0 0 
0 0 0 0 0 0 0 0 
2.36889e-20 0 1.97881e-20 1.97881e-20 0 1.67506e-20 1.67506e-20 1.20336e-32 
3.62897e-20 -1.485e-21 -2.25044e-22 -8.38043e-21 -6.32962e-21 -9.59222e-22 -3.57205e-20 -1.80086e-32 
4.26203e-20 -2.58864e-21 -9.45267e-22 -1.43549e-20 -7.54793e-21 -2.7562e-21 -4.1856e-20 -1.24315e-32 
3.18214e-20 -1.16449e-21 -2.04787e-22 -6.51269e-21 -5.59824e-21 -9.8451e-22 -3.13096e-20 -1.52385e-33 
6.60137e-20 -1.98284e-21 -1.58217e-21 -7.83898e-21 -1.58868e-20 -1.26765e-20 -6.2807e-20 -5.73512e-33 
8.28612e-20 -1.37363e-21 -8.1224e-22 -5.52379e-21 -1.9796e-20 -1.17055e-20 -7.96057e-20 -4.20957e-33 
8.12572e-20 -1.42884e-21 -5.65728e-22 -5.87323e-21 -1.91244e-20 -7.57204e-21 -7.86107e-20 5.31667e-33 
5.16455e-20 -8.45786e-22 -3.09439e-22 -3.81426e-21 -1.11456e-20 -4.07771e-21 -5.02634e-20 5.96416e-33 
3.18331e-20 -9.99677e-22 -2.79827e-22 -5.49126e-21 -5.69431e-21 -1.59393e-21 -3.1279e-20 7.63356e-34 
3.53732e-20 -1.23214e-21 -3.29852e-22 -6.63642e-21 -6.44947e-21 -1.72657e-21 -3.47374e-20 -4.20042e-33 
3.44235e-20 -1.10644e-21 -4.88033e-22 -5.88183e-21 -6.34282e-21 -2.7977e-21 -3.37183e-20 1.63309e-33 
3.95995e-20 -1.32034e-21 -6.66708e-22 -6.74066e-21 -7.57638e-21 -3.8257e-21 -3.86792e-20 -2.76284e-35 
9.99083e-20 -2.31356e-21 -2.03949e-21 -1.14967e-20 -1.94187e-20 -1.71183e-20 -9.64963e-20 3.17443e-32 
3.69407e-20 -1.38645e-21 -8.01382e-22 -6.92925e-21 -7.20154e-21 -4.16255e-21 -3.5992e-20 -3.3429e-33 
4.31372e-20 -9.39561e-22 -3.27974e-22 -4.62641e-21 -8.56468e-21 -2.98968e-21 -4.21725e-20 9.31201e-33 
4.08766e-20 -1.131e-21 -6.10167e-22 -5.32928e-21 -8.43329e-21 -4.54969e-21 -3.97376e-20 1.37623e-34 
6.21517e-20 -1.04454e-21 -4.95238e-22 -4.26527e-21 -1.46906e-20 -6.96511e-21 -5.99876e-20 -1.45139e-32 
4.75425e-20 -7.3996e-22 -3.25359e-22 -3.32034e-21 -1.02945e-20 -4.52647e-21 -4.61933e-20 -1.1834e-32 
4.71845e-20 -1.45244e-21 -6.46175e-22 -6.59432e-21 -1.01032e-20 -4.49483e-21 -4.58704e-20 1.45133e-34 
4.7479e-20 -1.29465e-21 -8.7992e-22 -5.84282e-21 -1.0162e-20 -6.90669e-21 -4.58616e-20 2.76516e-33 
6.61195e-20 -1.53804e-21 -1.47045e-21 -7.08238e-21 -1.37516e-20 -1.31473e-20 -6.33232e-20 1.36466e-32 
5.28757e-20 -1.4005e-21 -1.19756e-21 -6.00637e-21 -1.17867e-20 -1.00788e-20 -5.05503e-20 3.17423e-34 
5.11358e-20 -1.54042e-21 -9.16773e-22 -6.65719e-21 -1.14254e-20 -6.7998e-21 -4.93771e-20 2.48199e-33 
6.34189e-20 -1.07601e-21 -5.18439e-22 -4.43769e-21 -1.48488e-20 -7.15439e-21 -6.12396e-20 6.57795e-33 