ITEM: TIMESTEP
135
ITEM: NUMBER OF SURFS
6916
ITEM: BOX BOUNDS oo rr rr
-20 20
-20 20
-20 20
ITEM: SURFS f_save[1] f_save[2] f_save[3] f_save[4] f_save[5] f_save[6] f_save[7] f_save[8] 
1.6321e-18 -1.22458e-19 0 0 -1.6321e-18 0 0 0 
8.95328e-20 0 0 -2.68691e-19 0 0 -8.95328e-20 0 
0 0 0 0 0 0 0 0 
1.4155e-18 -3.45027e-20 0 0 -1.4155e-18 0 0 1.31033e-30 
1.27668e-18 -1.59585e-21 0 0 -1.27668e-18 0 0 0 
1.13998e-18 -1.42497e-21 0 0 -1.13998e-18 0 0 0 
1.32268e-18 -1.65336e-21 0 0 -1.32268e-18 0 0 0 
1.38317e-18 -3.37148e-20 0 0 -1.38317e-18 0 0 1.2717e-30 
1.32188e-18 -3.13947e-20 0 0 -1.32188e-18 0 0 0 
1.41109e-18 -3.35133e-20 0 0 -1.41109e-18 0 0 0 
1.45914e-18 -3.46548e-20 0 0 -1.45914e-18 0 0 0 
1.44905e-18 -3.4415e-20 0 0 -1.44905e-18 0 0 0 
1.46798e-18 -3.57821e-20 0 0 -1.46798e-18 0 0 0 
1.44105e-18 -3.42249e-20 0 0 -1.44105e-18 0 0 0 
1.40519e-18 -3.33732e-20 0 0 -1.40519e-18 0 0 0 
1.37179e-18 -3.34375e-20 0 0 -1.37179e-18 0 0 0 
1.38563e-18 -3.37748e-20 0 0 -1.38563e-18 0 0 1.27777e-30 
1.41824e-18 -3.36833e-20 0 0 -1.41824e-18 0 0 1.31654e-30 
1.38918e-18 -3.2993e-20 0 0 -1.38918e-18 0 0 0 
1.34767e-18 -3.28494e-20 0 0 -1.34767e-18 0 0 1.24855e-30 
1.40272e-18 -3.33145e-20 0 0 -1.40272e-18 0 0 0 
1.39622e-18 -3.31603e-20 0 0 -1.39622e-18 0 0 0 
1.38723e-18 -3.38139e-20 0 0 -1.38723e-18 0 0 0 
1.42974e-18 -3.39564e-20 0 0 -1.42974e-18 0 0 0 
1.45758e-18 -3.46175e-20 0 0 -1.45758e-18 0 0 0 
1.41701e-18 -3.3654e-20 0 0 -1.41701e-18 0 0 0 
1.52536e-18 -1.90671e-21 0 0 -1.52536e-18 0 0 0 
1.39166e-18 -3.30519e-20 0 0 -1.39166e-18 0 0 0 
1.38723e-18 -3.29468e-20 0 0 -1.38723e-18 0 0 0 
1.46122e-18 -1.82652e-21 0 0 -1.46122e-18 0 0 0 
1.28156e-18 -3.04371e-20 0 0 -1.28156e-18 0 0 0 
1.38639e-18 -3.29268e-20 0 0 -1.38639e-18 0 0 0 
1.73004e-18 -2.16256e-21 0 0 -1.73004e-18 0 0 0 
1.38823e-18 -3.3838e-20 0 0 -1.38823e-18 0 0 1.27441e-30 
1.40691e-18 -3.34142e-20 0 0 -1.40691e-18 0 0 0 
1.61439e-18 -2.01799e-21 0 0 -1.61439e-18 0 0 0 
1.39537e-18 -3.40121e-20 0 0 -1.39537e-18 0 0 1.28458e-30 
1.37741e-18 -3.27137e-20 0 0 -1.37741e-18 0 0 0 
1.50339e-18 -1.87925e-21 0 0 -1.50339e-18 0 0 0 
1.32836e-18 -3.15486e-20 0 0 -1.32836e-18 0 0 0 
1.34662e-18 -3.2824e-20 0 0 -1.34662e-18 0 0 0 
1.59756e-18 -1.99696e-21 0 0 -1.59756e-18 0 0 0 
1.33226e-18 -3.16412e-20 0 0 -1.33226e-18 0 0 0 
1.42709e-18 -3.47853e-20 0 0 -1.42709e-18 0 0 0 
1.60692e-18 -2.00866e-21 0 0 -1.60692e-18 0 0 0 
1.42861e-18 -3.39296e-20 0 0 -1.42861e-18 0 0 0 
1.37132e-18 -3.2569e-20 0 0 -1.37132e-18 0 0 0 
1.62558e-18 -2.03198e-21 0 0 -1.62558e-18 0 0 0 
1.2949e-18 -1.61863e-21 0 0 -1.2949e-18 0 0 0 
1.41545e-18 -1.76932e-21 0 0 -1.41545e-18 0 0 0 
1.40705e-18 -3.34176e-20 0 0 -1.40705e-18 0 0 1.29686e-30 
1.4048e-18 -3.33641e-20 0 0 -1.4048e-18 0 0 0 
1.37178e-18 -3.25799e-20 0 0 -1.37178e-18 0 0 1.26202e-30 
1.58667e-18 -1.98334e-21 0 0 -1.58667e-18 0 0 0 
1.40902e-18 -3.34641e-20 0 0 -1.40902e-18 0 0 0 
1.41262e-18 -3.35498e-20 0 0 -1.41262e-18 0 0 0 
1.49594e-18 -3.55286e-20 0 0 -1.49594e-18 0 0 0 
1.56418e-18 -1.95523e-21 0 0 -1.56418e-18 0 0 0 
1.46605e-18 -3.48186e-20 0 0 -1.46605e-18 0 0 0 
1.4433e-18 -3.42785e-20 0 0 -1.4433e-18 0 0 0 
1.34942e-18 -3.20488e-20 0 0 -1.34942e-18 0 0 0 
1.8029e-18 -2.25364e-21 0 0 -1.8029e-18 0 0 0 
1.34188e-18 -3.18697e-20 0 0 -1.34188e-18 0 0 0 
1.27992e-18 -3.1198e-20 0 0 -1.27992e-18 0 0 1.18841e-30 
1.35988e-18 -1.69987e-21 0 0 -1.35988e-18 0 0 0 
1.29548e-18 -3.07678e-20 0 0 -1.29548e-18 0 0 0 
1.37339e-18 -3.26179e-20 0 0 -1.37339e-18 0 0 0 
1.63879e-18 -2.04849e-21 0 0 -1.63879e-18 0 0 0 
1.32568e-18 -3.14849e-20 0 0 -1.32568e-18 0 0 0 
1.40002e-18 -3.32504e-20 0 0 -1.40002e-18 0 0 0 
1.6488e-18 -2.06099e-21 0 0 -1.6488e-18 0 0 0 
1.42642e-18 -3.38775e-20 0 0 -1.42642e-18 0 0 0 
1.31494e-18 -3.12298e-20 0 0 -1.31494e-18 0 0 0 
1.45522e-18 -1.81903e-21 0 0 -1.45522e-18 0 0 0 
1.69746e-18 -2.12184e-21 0 0 -1.69746e-18 0 0 0 
1.42262e-18 -3.37872e-20 0 0 -1.42262e-18 0 0 0 
1.43744e-18 -3.41391e-20 0 0 -1.43744e-18 0 0 0 
1.45518e-18 -1.81898e-21 0 0 -1.45518e-18 0 0 0 
1.37011e-18 -3.254e-20 0 0 -1.37011e-18 0 0 0 
1.35546e-18 -3.21922e-20 0 0 -1.35546e-18 0 0 0 
1.45695e-18 -3.46027e-20 0 0 -1.45695e-18 0 0 0 
1.38825e-18 -3.2971e-20 0 0 -1.38825e-18 0 0 0 
1.43374e-18 -3.40513e-20 0 0 -1.43374e-18 0 0 0 
1.41372e-18 -3.44596e-20 0 0 -1.41372e-18 0 0 0 
1.3942e-18 -3.48552e-20 0 0 -1.3942e-18 0 0 0 
1.36256e-18 -3.40641e-20 0 0 -1.36256e-18 0 0 0 
1.30666e-18 -3.26664e-20 0 0 -1.30666e-18 0 0 0 
1.32336e-18 -3.30841e-20 0 0 -1.32336e-18 0 0 0 
1.38354e-18 -1.18984e-18 0 0 -1.38354e-18 0 0 1.27629e-30 
1.39259e-18 -6.61481e-19 0 0 -1.39259e-18 0 0 1.28308e-30 
1.39082e-18 -6.60637e-19 0 0 -1.39082e-18 0 0 0 
1.37477e-18 -6.53015e-19 0 0 -1.37477e-18 0 0 0 
1.36924e-18 -6.67503e-19 0 0 -1.36924e-18 0 0 0 
1.39764e-18 -1.20197e-18 0 0 -1.39764e-18 0 0 1.28942e-30 
1.40032e-18 -6.65152e-19 0 0 -1.40032e-18 0 0 0 
1.37453e-18 -6.52903e-19 0 0 -1.37453e-18 0 0 0 
1.38417e-18 -6.57481e-19 0 0 -1.38417e-18 0 0 0 
1.38132e-18 -6.73393e-19 0 0 -1.38132e-18 0 0 0 
1.43713e-18 -3.59282e-20 0 0 -1.43713e-18 0 0 1.32226e-30 
1.29787e-18 -3.24469e-20 0 0 -1.29787e-18 0 0 0 
1.48982e-18 -3.72455e-20 0 0 -1.48982e-18 0 0 1.36798e-30 
3.04923e-21 0 0 -1.7838e-20 0 0 -3.04923e-21 0 
0 0 0 0 0 0 0 0 
1.27752e-20 3.03412e-22 0 0 1.27752e-20 0 0 0 
0 0 0 0 0 0 0 0 
5.28657e-21 1.25556e-22 0 0 5.28657e-21 0 0 0 
5.57101e-21 1.32312e-22 0 0 5.57101e-21 0 0 0 
9.57055e-21 2.27301e-22 0 0 9.57055e-21 0 0 0 
1.75968e-20 4.17926e-22 0 0 1.75968e-20 0 0 0 
4.17624e-21 9.91855e-23 0 0 4.17624e-21 0 0 0 
1.17209e-20 2.7837e-22 0 0 1.17209e-20 0 0 0 
2.64138e-20 3.21918e-22 0 0 2.64138e-20 0 0 0 
5.40818e-21 1.28445e-22 0 0 5.40818e-21 0 0 4.73034e-33 
5.91898e-21 1.40576e-22 0 0 5.91898e-21 0 0 0 
6.36982e-21 1.51283e-22 0 0 6.36982e-21 0 0 0 
1.25696e-20 2.98527e-22 0 0 1.25696e-20 0 0 0 
4.51383e-21 1.07203e-22 0 0 4.51383e-21 0 0 0 
9.45613e-21 2.24583e-22 0 0 9.45613e-21 0 0 0 
1.46561e-20 3.48082e-22 0 0 1.46561e-20 0 0 0 
2.98243e-20 3.72804e-23 0 0 2.98243e-20 0 0 0 
1.21609e-20 2.88822e-22 0 0 1.21609e-20 0 0 0 
3.83355e-21 9.10467e-23 0 0 3.83355e-21 0 0 0 
0 0 0 0 0 0 0 0 
6.48563e-21 1.54033e-22 0 0 6.48563e-21 0 0 0 
6.85627e-21 1.62836e-22 0 0 6.85627e-21 0 0 0 
0 0 0 0 0 0 0 0 
1.90383e-21 4.52161e-23 0 0 1.90383e-21 0 0 0 
6.94457e-21 1.64934e-22 0 0 6.94457e-21 0 0 0 
0 0 0 0 0 0 0 0 
0 0 0 0 0 0 0 0 
4.79614e-21 1.13908e-22 0 0 4.79614e-21 0 0 0 
1.47373e-21 3.5001e-23 0 0 1.47373e-21 0 0 0 
6.34991e-21 1.50811e-22 0 0 6.34991e-21 0 0 0 
6.22276e-21 1.4779e-22 0 0 6.22276e-21 0 0 0 
0 0 0 0 0 0 0 0 
3.3245e-21 7.89567e-23 0 0 3.3245e-21 0 0 0 
5.32753e-21 1.26529e-22 0 0 5.32753e-21 0 0 0 
0 0 0 0 0 0 0 0 
0 0 0 0 0 0 0 0 
3.57457e-21 8.48959e-23 0 0 3.57457e-21 0 0 0 
7.0954e-21 1.68516e-22 0 0 7.0954e-21 0 0 0 
7.90635e-21 1.87776e-22 0 0 7.90635e-21 0 0 0 
0 0 0 0 0 0 0 0 
6.34321e-21 1.50651e-22 0 0 6.34321e-21 0 0 0 
3.81227e-21 9.05416e-23 0 0 3.81227e-21 0 0 0 
0 0 0 0 0 0 0 0 
1.00804e-20 2.39409e-22 0 0 1.00804e-20 0 0 0 
1.34702e-20 3.19918e-22 0 0 1.34702e-20 0 0 0 
5.31641e-21 1.26265e-22 0 0 5.31641e-21 0 0 0 
0 0 0 0 0 0 0 0 
2.55542e-21 6.22885e-23 0 0 2.55542e-21 0 0 0 
0 0 0 0 0 0 0 0 
1.05162e-20 2.56332e-22 0 0 1.05162e-20 0 0 9.94973e-33 
2.03194e-20 4.82588e-22 0 0 2.03194e-20 0 0 0 
1.29089e-20 3.14655e-22 0 0 1.29089e-20 0 0 0 
1.55046e-20 3.77923e-22 0 0 1.55046e-20 0 0 1.44856e-32 
1.28953e-20 3.06264e-22 0 0 1.28953e-20 0 0 0 
0 0 0 0 0 0 0 0 
2.00782e-21 4.89407e-23 0 0 2.00782e-21 0 0 0 
0 0 0 0 0 0 0 0 
0 0 0 0 0 0 0 0 
0 0 0 0 0 0 0 0 
0 0 0 0 0 0 0 0 
0 0 0 0 0 0 0 0 
0 0 0 0 0 0 0 0 
4.97744e-21 1.21325e-22 0 0 4.97744e-21 0 0 0 
7.41598e-21 1.7613e-22 0 0 7.41598e-21 0 0 0 
0 0 0 0 0 0 0 0 
1.09678e-20 2.67339e-22 0 0 1.09678e-20 0 0 0 
8.14593e-21 1.93467e-22 0 0 8.14593e-21 0 0 0 
2.94111e-20 3.67639e-23 0 0 2.94111e-20 0 0 0 
7.70734e-21 1.87867e-22 0 0 7.70734e-21 0 0 0 
2.14459e-21 5.09341e-23 0 0 2.14459e-21 0 0 2.10237e-33 
2.70323e-21 6.58915e-23 0 0 2.70323e-21 0 0 0 
5.67324e-21 1.3474e-22 0 0 5.67324e-21 0 0 5.4061e-33 
6.56782e-21 1.55986e-22 0 0 6.56782e-21 0 0 0 
1.81829e-20 4.31847e-22 0 0 1.81829e-20 0 0 0 
7.53927e-21 1.79058e-22 0 0 7.53927e-21 0 0 0 
2.7572e-21 6.54839e-23 0 0 2.7572e-21 0 0 0 
5.5137e-21 1.30951e-22 0 0 5.5137e-21 0 0 4.73034e-33 
1.12094e-20 2.73228e-22 0 0 1.12094e-20 0 0 9.94973e-33 
5.36989e-21 1.30891e-22 0 0 5.36989e-21 0 0 0 
1.28876e-19 8.05479e-23 0 0 1.28876e-19 0 0 0 
1.27175e-20 1.54994e-22 0 0 1.27175e-20 0 0 0 
3.086e-19 -3.24028e-19 -3.96852e-19 -3.96852e-19 -1.543e-19 -1.88978e-19 -1.88978e-19 -1.03252e-31 
2.64245e-21 0 0 -3.90762e-19 0 0 -2.64245e-21 0 
1.76615e-21 0 3.57798e-19 -3.57798e-19 0 1.24886e-21 -1.24886e-21 -9.14462e-35 
3.11332e-19 -3.26896e-19 4.00365e-19 4.00365e-19 -1.55666e-19 1.90651e-19 1.90651e-19 -1.04525e-31 
2.66248e-21 0 0 3.93723e-19 0 0 2.66248e-21 0 
2.55582e-21 0 -2.33133e-19 2.33133e-19 0 -1.80724e-21 1.80724e-21 1.56617e-34 
2.89181e-21 0 -1.69171e-20 0 0 -2.89181e-21 0 0 
2.90848e-21 0 1.70146e-20 0 0 2.90848e-21 0 0 
2.74048e-21 0 0 -1.56208e-20 0 0 -2.74048e-21 0 
2.83529e-21 0 0 1.61612e-20 0 0 2.83529e-21 0 
2.81185e-21 0 0 -1.60275e-20 0 0 -2.81185e-21 0 
2.77173e-21 0 0 1.57989e-20 0 0 2.77173e-21 0 
2.82563e-21 0 0 1.61061e-20 0 0 2.82563e-21 0 
2.74231e-21 0 0 -1.56311e-20 0 0 -2.74231e-21 0 
2.77197e-21 0 0 -1.58002e-20 0 0 -2.77197e-21 0 
2.70692e-21 0 0 1.54294e-20 0 0 2.70692e-21 0 
2.7837e-21 0 0 -1.58671e-20 0 0 -2.7837e-21 0 
2.7483e-21 0 0 1.56653e-20 0 0 2.7483e-21 0 
2.87729e-21 0 -1.64005e-20 0 0 -2.87729e-21 0 0 
2.79308e-21 0 1.59205e-20 0 0 2.79308e-21 0 0 
2.82965e-21 0 0 -1.6129e-20 0 0 -2.82965e-21 0 
2.90766e-21 0 0 1.65737e-20 0 0 2.90766e-21 0 
2.98487e-21 0 -1.70137e-20 0 0 -2.98487e-21 0 0 
2.95938e-21 0 1.68685e-20 0 0 2.95938e-21 0 0 
2.88202e-21 0 -1.64275e-20 0 0 -2.88202e-21 0 0 
2.89805e-21 0 1.65189e-20 0 0 2.89805e-21 0 0 
2.86926e-21 0 1.67851e-20 0 0 2.86926e-21 0 0 
2.85887e-21 0 -1.67244e-20 0 0 -2.85887e-21 0 0 
2.74894e-21 0 1.60813e-20 0 0 2.74894e-21 0 0 
2.75182e-21 0 -1.60981e-20 0 0 -2.75182e-21 0 0 
2.8031e-21 0 -1.59777e-20 0 0 -2.8031e-21 0 0 
2.82302e-21 0 1.60912e-20 0 0 2.82302e-21 0 0 
2.81076e-21 0 1.64429e-20 0 0 2.81076e-21 0 0 
2.79635e-21 0 -8.17932e-21 0 0 -2.79635e-21 0 0 
2.8199e-21 0 0 8.24822e-21 0 0 2.8199e-21 0 
2.8767e-21 0 0 -1.63972e-20 0 0 -2.8767e-21 0 
3.11683e-21 0 0 1.77659e-20 0 0 3.11683e-21 0 
2.81638e-21 0 0 1.64758e-20 0 0 2.81638e-21 0 
2.81096e-21 0 0 -1.64441e-20 0 0 -2.81096e-21 0 
2.81754e-21 0 -1.606e-20 0 0 -2.81754e-21 0 0 
2.88964e-21 0 1.64709e-20 0 0 2.88964e-21 0 0 
2.93957e-21 0 -1.67555e-20 0 0 -2.93957e-21 0 0 
2.87412e-21 0 1.63825e-20 0 0 2.87412e-21 0 0 
2.87827e-21 0 0 1.64061e-20 0 0 2.87827e-21 0 
2.87624e-21 0 0 -1.63945e-20 0 0 -2.87624e-21 0 
2.87658e-21 0 -1.63965e-20 0 0 -2.87658e-21 0 0 
2.85729e-21 0 1.62865e-20 0 0 2.85729e-21 0 0 
2.87026e-21 0 0 1.63605e-20 0 0 2.87026e-21 0 
2.7484e-21 0 0 -1.56659e-20 0 0 -2.7484e-21 0 
2.77709e-21 0 -1.58294e-20 0 0 -2.77709e-21 0 0 
2.77437e-21 0 1.58139e-20 0 0 2.77437e-21 0 0 
2.80406e-21 0 0 1.59831e-20 0 0 2.80406e-21 0 
3.06119e-21 0 0 -1.74488e-20 0 0 -3.06119e-21 0 
2.87049e-21 0 1.63618e-20 0 0 2.87049e-21 0 0 
2.85095e-21 0 -1.62504e-20 0 0 -2.85095e-21 0 0 
2.84145e-21 0 1.61963e-20 0 0 2.84145e-21 0 0 
2.82245e-21 0 -1.6088e-20 0 0 -2.82245e-21 0 0 
2.81576e-21 0 0 -1.60498e-20 0 0 -2.81576e-21 0 
2.92929e-21 0 0 1.6697e-20 0 0 2.92929e-21 0 
2.81064e-21 0 0 1.60207e-20 0 0 2.81064e-21 0 
3.0538e-21 0 0 -1.74067e-20 0 0 -3.0538e-21 0 
2.89392e-21 0 0 1.64953e-20 0 0 2.89392e-21 0 
3.08644e-21 0 0 -1.75927e-20 0 0 -3.08644e-21 0 
2.85447e-21 0 -1.62705e-20 0 0 -2.85447e-21 0 0 
3.10092e-21 0 1.76752e-20 0 0 3.10092e-21 0 0 
2.89656e-21 0 -1.65104e-20 0 0 -2.89656e-21 0 0 
2.84525e-21 0 1.62179e-20 0 0 2.84525e-21 0 0 
3.05181e-21 0 1.78531e-20 0 0 3.05181e-21 0 0 
2.73366e-21 0 0 -1.59919e-20 0 0 -2.73366e-21 0 
2.83951e-21 0 -1.66111e-20 0 0 -2.83951e-21 0 0 
2.82857e-21 0 1.65472e-20 0 0 2.82857e-21 0 0 
2.80357e-21 0 1.64009e-20 0 0 2.80357e-21 0 0 
2.82814e-21 0 -1.65446e-20 0 0 -2.82814e-21 0 0 
2.79511e-21 0 0 -1.63514e-20 0 0 -2.79511e-21 0 
2.83583e-21 0 0 1.65896e-20 0 0 2.83583e-21 0 
2.72629e-21 0 0 1.59488e-20 0 0 2.72629e-21 0 
2.67706e-21 0 0 -1.56608e-20 0 0 -2.67706e-21 0 
3.05794e-21 0 -1.74303e-20 0 0 -3.05794e-21 0 0 
2.82288e-21 0 1.60904e-20 0 0 2.82288e-21 0 0 
2.71035e-21 0 0 -1.58556e-20 0 0 -2.71035e-21 0 
2.84316e-21 0 0 1.66325e-20 0 0 2.84316e-21 0 
2.79626e-21 0 -8.17906e-21 0 0 -2.79626e-21 0 0 
3.07169e-21 0 -1.79694e-20 0 0 -3.07169e-21 0 0 
3.09975e-21 0 1.81335e-20 0 0 3.09975e-21 0 0 
3.07288e-21 0 -1.79764e-20 0 0 -3.07288e-21 0 0 
3.08461e-21 0 1.8045e-20 0 0 3.08461e-21 0 0 
3.05868e-21 0 -1.74345e-20 0 0 -3.05868e-21 0 0 
2.9129e-21 0 1.66035e-20 0 0 2.9129e-21 0 0 
3.06673e-21 0 0 -1.79403e-20 0 0 -3.06673e-21 0 
3.06964e-21 0 0 1.79574e-20 0 0 3.06964e-21 0 
2.86921e-21 0 1.63545e-20 0 0 2.86921e-21 0 0 
3.17587e-21 0 -1.81025e-20 0 0 -3.17587e-21 0 0 
3.11055e-21 0 0 1.77301e-20 0 0 3.11055e-21 0 
3.07653e-21 0 0 -1.75362e-20 0 0 -3.07653e-21 0 
3.09791e-21 0 0 1.81228e-20 0 0 3.09791e-21 0 
2.76411e-21 0 8.08502e-21 0 0 2.76411e-21 0 0 
2.82039e-21 0 -1.60762e-20 0 0 -2.82039e-21 0 0 
3.14617e-21 0 1.79332e-20 0 0 3.14617e-21 0 0 
3.06975e-21 0 1.74976e-20 0 0 3.06975e-21 0 0 
3.03855e-21 0 -1.73197e-20 0 0 -3.03855e-21 0 0 
3.04238e-21 0 1.73416e-20 0 0 3.04238e-21 0 0 
3.09851e-21 0 -1.76615e-20 0 0 -3.09851e-21 0 0 
3.05326e-21 0 0 -1.74036e-20 0 0 -3.05326e-21 0 
3.03452e-21 0 0 1.72968e-20 0 0 3.03452e-21 0 
2.85745e-21 0 1.62875e-20 0 0 2.85745e-21 0 0 
3.10801e-21 0 -1.77157e-20 0 0 -3.10801e-21 0 0 
3.10494e-21 0 0 -1.76982e-20 0 0 -3.10494e-21 0 
3.08225e-21 0 0 1.75688e-20 0 0 3.08225e-21 0 
3.01847e-21 0 1.72053e-20 0 0 3.01847e-21 0 0 
2.82161e-21 0 -1.60832e-20 0 0 -2.82161e-21 0 0 
3.07304e-21 0 -1.75163e-20 0 0 -3.07304e-21 0 0 
3.00825e-21 0 1.7147e-20 0 0 3.00825e-21 0 0 
3.07553e-21 0 0 -1.75305e-20 0 0 -3.07553e-21 0 
3.02269e-21 0 0 1.72293e-20 0 0 3.02269e-21 0 
3.04784e-21 0 0 -1.73727e-20 0 0 -3.04784e-21 0 
3.17247e-21 0 0 1.80831e-20 0 0 3.17247e-21 0 
3.05433e-21 0 0 1.74097e-20 0 0 3.05433e-21 0 
2.99274e-21 0 0 -1.70586e-20 0 0 -2.99274e-21 0 
3.14252e-21 0 -1.79124e-20 0 0 -3.14252e-21 0 0 
3.06e-21 0 1.7442e-20 0 0 3.06e-21 0 0 
3.02337e-21 0 0 1.72332e-20 0 0 3.02337e-21 0 
3.07583e-21 0 0 -1.75322e-20 0 0 -3.07583e-21 0 
3.10246e-21 0 0 -1.7684e-20 0 0 -3.10246e-21 0 
2.85785e-21 0 0 1.62897e-20 0 0 2.85785e-21 0 
3.11595e-21 0 1.77609e-20 0 0 3.11595e-21 0 0 
3.11669e-21 0 -1.77651e-20 0 0 -3.11669e-21 0 0 
3.07699e-21 0 -1.75389e-20 0 0 -3.07699e-21 0 0 
3.09919e-21 0 1.76654e-20 0 0 3.09919e-21 0 0 
3.06077e-21 0 0 1.74464e-20 0 0 3.06077e-21 0 
3.06006e-21 0 0 -1.74424e-20 0 0 -3.06006e-21 0 
3.07824e-21 0 1.7546e-20 0 0 3.07824e-21 0 0 
3.15225e-21 0 -1.79678e-20 0 0 -3.15225e-21 0 0 
3.07018e-21 0 0 1.75001e-20 0 0 3.07018e-21 0 
3.07761e-21 0 0 -1.75424e-20 0 0 -3.07761e-21 0 
2.63323e-21 -3.56898e-24 0 -1.87617e-21 -5.00908e-24 0 -2.63322e-21 2.36517e-34 
9.40949e-21 -1.15354e-22 -3.876e-23 -1.73354e-21 -6.24595e-22 -2.0987e-22 -9.38639e-21 -4.34505e-35 
5.48831e-21 -3.93375e-23 -1.73048e-23 -1.01505e-21 -2.12504e-22 -9.34819e-23 -5.4834e-21 4.72035e-34 
1.06689e-20 -1.31386e-22 -8.78964e-23 -1.9307e-21 -7.23604e-22 -4.84089e-22 -1.06333e-20 -6.48208e-34 
2.78195e-21 -3.31086e-25 -9.94889e-28 -6.95489e-22 -1.32434e-24 -3.97956e-27 -2.78195e-21 -7.2044e-34 
2.94507e-21 -4.1724e-24 -2.18805e-23 -7.07396e-22 -1.73621e-23 -9.10488e-23 -2.94361e-21 -3.48764e-34 
3.33506e-21 -5.89559e-24 -1.86546e-23 -5.37616e-22 -3.65486e-23 -1.15646e-22 -3.33285e-21 1.1055e-34 
3.1357e-21 -1.02276e-23 -2.46652e-23 -5.66599e-22 -5.65392e-23 -1.36352e-22 -3.13222e-21 2.31665e-34 
5.91311e-21 -4.17608e-23 -1.86442e-23 -1.09362e-21 -2.256e-22 -1.0072e-22 -5.90795e-21 8.71839e-34 
4.2715e-21 -2.38794e-23 -4.04052e-23 -7.68205e-22 -1.32531e-22 -2.2425e-22 -4.26355e-21 -9.84769e-34 
5.78644e-21 -5.53035e-23 -4.22865e-23 -1.05156e-21 -3.03654e-22 -2.32181e-22 -5.7738e-21 2.98636e-34 
2.15275e-21 -3.35274e-24 -8.15459e-24 -7.04024e-22 -1.02511e-23 -2.49329e-23 -2.15258e-21 -4.5255e-34 
3.76994e-21 -1.09301e-23 -7.02936e-24 -6.21455e-22 -6.62907e-23 -4.26329e-23 -3.76911e-21 2.81203e-34 
3.69163e-21 -5.07445e-24 -1.7529e-23 -4.42331e-22 -4.23147e-23 -1.46171e-22 -3.68849e-21 -2.00749e-34 
2.62588e-21 -4.55632e-24 -7.41058e-24 -4.28833e-22 -2.7894e-23 -4.5368e-23 -2.62534e-21 -3.05683e-34 
1.75366e-21 -5.56218e-25 0 -3.28812e-23 -2.96606e-23 0 -1.75341e-21 1.14113e-33 
3.36545e-21 -1.08761e-23 1.76484e-23 -6.1575e-22 -5.94109e-23 9.64045e-23 -3.36354e-21 -3.94516e-34 
3.26781e-21 -1.19749e-23 0 -1.16416e-21 -3.3612e-23 0 -3.26764e-21 2.60281e-34 
3.41554e-21 -4.35346e-25 1.09604e-23 -8.22801e-22 -1.80701e-24 4.54939e-23 -3.41523e-21 1.03626e-34 
2.58052e-21 -3.65593e-24 1.91721e-23 -6.19833e-22 -1.5213e-23 7.97785e-23 -2.57924e-21 4.2668e-34 
6.81615e-21 -6.52215e-23 5.61554e-23 -1.23349e-21 -3.59534e-22 3.09557e-22 -6.79961e-21 1.37624e-34 
5.05698e-21 -3.57608e-23 1.84781e-23 -9.33593e-22 -1.93525e-22 9.99971e-23 -5.05229e-21 -9.65045e-35 
5.80176e-21 -5.0201e-23 6.35979e-23 -1.03761e-21 -2.79846e-22 3.54527e-22 -5.78415e-21 3.77752e-34 
3.82563e-21 -1.91322e-23 2.4125e-23 -6.97781e-22 -1.04792e-22 1.32138e-22 -3.82191e-21 -2.00231e-34 
3.81634e-21 -7.42852e-24 2.13466e-23 -6.15199e-22 -4.60512e-23 1.32333e-22 -3.81376e-21 4.86416e-34 
2.9654e-21 -5.13677e-24 5.52923e-24 -4.88831e-22 -3.11575e-23 3.3538e-23 -2.96505e-21 9.73491e-35 
4.28403e-21 -4.00447e-23 0 -1.52619e-21 -1.12368e-22 0 -4.28256e-21 6.93046e-34 
2.57089e-21 -8.72576e-25 0 -1.83176e-21 -1.22467e-24 0 -2.57089e-21 1.91467e-34 
2.86298e-21 -4.71477e-24 1.6817e-23 -6.96349e-22 -1.93783e-23 6.91199e-23 -2.86208e-21 1.42924e-34 
8.46612e-21 -1.00736e-22 0 -1.54771e-21 -5.49873e-22 0 -8.44824e-21 -9.24733e-34 
3.09285e-21 -4.19193e-24 2.20365e-21 0 -5.8834e-24 3.09284e-21 0 -2.26506e-34 
9.81532e-21 -1.20329e-22 1.8083e-21 -4.04317e-23 -6.51533e-22 9.79122e-21 -2.18921e-22 3.23465e-34 
4.51053e-21 -3.23293e-23 8.34214e-22 -1.42218e-23 -1.74645e-22 4.5065e-21 -7.68275e-23 -5.00935e-34 
1.14275e-20 -1.40728e-22 2.06799e-21 -9.41466e-23 -7.75059e-22 1.13894e-20 -5.18511e-22 -3.97764e-34 
2.40025e-21 -2.85659e-25 6.00063e-22 -8.58384e-28 -1.14264e-24 2.40025e-21 -3.43354e-27 8.55969e-35 
3.64214e-21 -5.15997e-24 8.74831e-22 -2.70594e-23 -2.14716e-23 3.64033e-21 -1.12599e-22 3.22792e-34 
2.67602e-21 -4.73058e-24 4.31379e-22 -1.49683e-23 -2.93264e-23 2.67425e-21 -9.27931e-23 6.63303e-35 
3.84957e-21 -1.2556e-23 6.95592e-22 -3.02805e-23 -6.9411e-23 3.84531e-21 -1.67394e-22 -6.60492e-34 
4.95452e-21 -3.49908e-23 9.16329e-22 -1.56217e-23 -1.89027e-22 4.95019e-21 -8.43918e-23 2.93824e-34 
4.75848e-21 -2.66018e-23 8.55785e-22 -4.50117e-23 -1.47641e-22 4.74962e-21 -2.49816e-22 -3.66195e-34 
6.53649e-21 -6.24721e-23 1.18787e-21 -4.77677e-23 -3.43014e-22 6.52221e-21 -2.62277e-22 6.60916e-34 
2.32308e-21 -3.61802e-24 7.59729e-22 -8.79981e-24 -1.10622e-23 2.3229e-21 -2.69057e-23 4.63454e-34 
3.21851e-21 -9.33135e-24 5.30556e-22 -6.00119e-24 -5.65945e-23 3.21781e-21 -3.63971e-23 1.02747e-34 
2.9618e-21 -4.07124e-24 3.54882e-22 -1.40635e-23 -3.39491e-23 2.95928e-21 -1.17273e-22 -2.6023e-34 
3.00977e-21 -5.22242e-24 4.91526e-22 -8.49395e-24 -3.19719e-23 3.00915e-21 -5.20004e-23 6.3866e-34 
5.95787e-22 -1.88969e-25 1.1171e-23 0 -1.00769e-23 5.95702e-22 0 0 
3.36084e-21 -1.08612e-23 6.14907e-22 1.76242e-23 -5.93295e-23 3.35894e-21 9.62724e-23 -1.31505e-34 
3.42173e-21 -1.2539e-23 1.21899e-21 0 -3.51952e-23 3.42155e-21 0 9.00972e-35 
2.60713e-21 -3.32306e-25 6.28055e-22 8.36625e-24 -1.37931e-24 2.60689e-21 3.47261e-23 8.14207e-35 
3.26021e-21 -4.61888e-24 7.83093e-22 2.42219e-23 -1.922e-23 3.2586e-21 1.00792e-22 -6.82687e-34 
6.99314e-21 -6.69151e-23 1.26552e-21 5.76136e-23 -3.6887e-22 6.97618e-21 3.17596e-22 2.06436e-34 
4.40849e-21 -3.11749e-23 8.13871e-22 1.61085e-23 -1.68708e-22 4.4044e-21 8.71738e-23 8.20288e-34 
5.88779e-21 -5.09454e-23 1.05299e-21 6.4541e-23 -2.83996e-22 5.86992e-21 3.59784e-22 2.3361e-34 
4.75218e-21 -2.3766e-23 8.6678e-22 2.99679e-23 -1.30172e-22 4.74756e-21 1.64142e-22 8.30228e-35 
4.15174e-21 -8.08138e-24 6.69266e-22 2.32227e-23 -5.00984e-23 4.14894e-21 1.43963e-22 7.01986e-34 
3.78597e-21 -6.55819e-24 6.24098e-22 7.05925e-24 -3.97793e-23 3.78552e-21 4.28185e-23 -2.16331e-34 
4.97363e-21 -4.64907e-23 1.77186e-21 0 -1.30455e-22 4.97192e-21 0 8.00631e-34 
2.69878e-21 -9.15984e-25 1.92288e-21 0 -1.28559e-24 2.69878e-21 0 1.00113e-34 
3.30138e-21 -5.43673e-24 8.02978e-22 1.93921e-23 -2.23456e-23 3.30034e-21 7.9704e-23 -3.26161e-34 
9.15409e-21 -1.08922e-22 1.67348e-21 0 -5.94557e-22 9.13476e-21 0 -5.25638e-34 
2.73474e-21 -3.70657e-24 0 1.94851e-21 -5.20219e-24 0 2.73474e-21 -1.93969e-34 
8.51156e-21 -1.04346e-22 3.50612e-23 1.56811e-21 -5.64991e-22 1.89842e-22 8.49067e-21 -4.05538e-34 
5.81006e-21 -4.16436e-23 1.83193e-23 1.07456e-21 -2.24962e-22 9.89622e-23 5.80486e-21 -4.76852e-34 
1.06424e-20 -1.3106e-22 8.76786e-23 1.92591e-21 -7.21811e-22 4.82889e-22 1.06069e-20 2.45533e-34 
2.5368e-21 -3.0191e-25 9.07218e-28 6.34201e-22 -1.20764e-24 3.62887e-27 2.5368e-21 3.10289e-34 
3.32121e-21 -4.70529e-24 2.4675e-23 7.97744e-22 -1.95796e-23 1.02677e-22 3.31956e-21 4.08128e-34 
3.01433e-21 -5.32862e-24 1.68606e-23 4.85914e-22 -3.30338e-23 1.04524e-22 3.01233e-21 -1.93463e-34 
3.15094e-21 -1.02773e-23 2.47851e-23 5.69353e-22 -5.6814e-23 1.37014e-22 3.14744e-21 -3.1053e-34 
5.56426e-21 -3.92971e-23 1.75443e-23 1.0291e-21 -2.12291e-22 9.47776e-23 5.5594e-21 5.3948e-34 
4.15349e-21 -2.32197e-23 3.9289e-23 7.46982e-22 -1.2887e-22 2.18054e-22 4.14576e-21 -1.03425e-33 
6.1782e-21 -5.90477e-23 4.51494e-23 1.12276e-21 -3.24212e-22 2.47901e-22 6.16471e-21 -6.70707e-34 
2.81986e-21 -4.39173e-24 1.06816e-23 9.22195e-22 -1.34279e-23 3.26594e-23 2.81964e-21 3.7349e-34 
3.26711e-21 -9.47225e-24 6.0918e-24 5.38567e-22 -5.7449e-23 3.69467e-23 3.2664e-21 -2.10902e-34 
4.03731e-21 -5.54962e-24 1.91704e-23 4.8375e-22 -4.6277e-23 1.59858e-22 4.03388e-21 -2.37924e-34 
3.92632e-21 -6.81278e-24 1.10806e-23 6.41208e-22 -4.17082e-23 6.7836e-23 3.92551e-21 8.51547e-34 
2.10105e-21 -6.66399e-25 0 3.93947e-23 -3.55361e-23 0 2.10075e-21 -2.85282e-34 
3.67126e-21 -1.18644e-23 -1.9252e-23 6.71702e-22 -6.48094e-23 -1.05165e-22 3.66918e-21 -3.55551e-34 
3.24504e-21 -1.18915e-23 0 1.15605e-21 -3.33778e-23 0 3.24487e-21 -2.00216e-34 
3.11862e-21 -3.97501e-25 -1.00076e-23 7.51274e-22 -1.64992e-24 -4.15391e-23 3.11834e-21 1.11028e-35 
2.96706e-21 -4.20355e-24 -2.20439e-23 7.12678e-22 -1.74918e-23 -9.17286e-23 2.96559e-21 -4.04418e-34 
6.89521e-21 -6.59781e-23 -5.68068e-23 1.2478e-21 -3.63705e-22 -3.13148e-22 6.87849e-21 -1.96606e-35 
5.15823e-21 -3.64767e-23 -1.8848e-23 9.52284e-22 -1.974e-22 -1.01999e-22 5.15344e-21 -4.48746e-34 
5.71859e-21 -4.94814e-23 -6.26862e-23 1.02273e-21 -2.75834e-22 -3.49445e-22 5.70124e-21 1.44639e-33 
4.13605e-21 -2.06847e-23 -2.60825e-23 7.544e-22 -1.13295e-22 -1.4286e-22 4.13203e-21 -6.7395e-34 
3.15178e-21 -6.13495e-24 -1.76294e-23 5.08071e-22 -3.8032e-23 -1.09289e-22 3.14965e-21 2.92955e-34 
3.34499e-21 -5.79431e-24 -6.23701e-24 5.51405e-22 -3.51459e-23 -3.78311e-23 3.34459e-21 5.40828e-36 
4.64054e-21 -4.33772e-23 0 1.65319e-21 -1.21719e-22 0 4.63894e-21 1.35107e-33 
2.85006e-21 -9.67329e-25 0 2.03067e-21 -1.35765e-24 0 2.85006e-21 5.25595e-35 
3.28816e-21 -5.41497e-24 -1.93145e-23 7.99764e-22 -2.22562e-23 -7.93849e-23 3.28713e-21 1.90566e-34 
9.09424e-21 -1.0821e-22 0 1.66254e-21 -5.9067e-22 0 9.07504e-21 -2.04415e-34 
2.96809e-21 -4.02284e-24 -2.11476e-21 0 -5.64608e-24 -2.96809e-21 0 -1.75198e-35 
9.91911e-21 -1.21602e-22 -1.82742e-21 4.08593e-23 -6.58423e-22 -9.89476e-21 2.21236e-22 1.83458e-34 
4.1968e-21 -3.00806e-23 -7.76189e-22 1.32326e-23 -1.62498e-22 -4.19304e-21 7.14837e-23 2.93818e-34 
1.12461e-20 -1.38494e-22 -2.03515e-21 9.26519e-23 -7.62753e-22 -1.12086e-20 5.10279e-22 -4.91067e-34 
2.33716e-21 -2.78151e-25 -5.84291e-22 8.35822e-28 -1.1126e-24 -2.33716e-21 3.34329e-27 3.92319e-35 
2.81921e-21 -3.99409e-24 -6.77165e-22 2.09454e-23 -1.66202e-23 -2.81781e-21 8.71578e-23 9.64667e-35 
3.12837e-21 -5.53022e-24 -5.04297e-22 1.74985e-23 -3.42836e-23 -3.1263e-21 1.08478e-22 -3.59289e-34 
3.89935e-21 -1.27184e-23 -7.04587e-22 3.0672e-23 -7.03085e-23 -3.89503e-21 1.69558e-22 9.36519e-35 
5.29549e-21 -3.73989e-23 -9.7939e-22 1.66968e-23 -2.02036e-22 -5.29086e-21 9.01995e-23 -3.37175e-35 
4.67386e-21 -2.61288e-23 -8.40567e-22 4.42112e-23 -1.45015e-22 -4.66516e-21 2.45373e-22 -5.98779e-34 
6.3009e-21 -6.02205e-23 -1.14506e-21 4.60461e-23 -3.30651e-22 -6.28714e-21 2.52824e-22 7.34351e-35 
2.66351e-21 -4.14822e-24 -8.71062e-22 1.00894e-23 -1.26833e-23 -2.6633e-21 3.08486e-23 -2.50811e-34 
3.29681e-21 -9.55835e-24 -5.43462e-22 6.14717e-24 -5.79712e-23 -3.29609e-21 3.72825e-23 1.62232e-34 
3.75561e-21 -5.1624e-24 -4.49997e-22 1.78328e-23 -4.30481e-23 -3.75242e-21 1.48704e-22 -5.13024e-34 
2.91462e-21 -5.05732e-24 -4.75987e-22 8.22543e-24 -3.09612e-23 -2.91402e-21 5.03565e-23 1.47383e-34 
4.23713e-22 -1.34391e-25 -7.94462e-24 0 -7.16648e-24 -4.23652e-22 0 5.70563e-34 
3.38375e-21 -1.09353e-23 -6.19099e-22 -1.77444e-23 -5.9734e-23 -3.38184e-21 -9.69288e-23 -2.6301e-34 
2.9581e-21 -1.084e-23 -1.05382e-21 0 -3.04264e-23 -2.95795e-21 0 6.75729e-35 
3.13794e-21 -3.99963e-25 -7.55928e-22 -1.00696e-23 -1.66014e-24 -3.13766e-21 -4.17964e-23 -3.70094e-36 
2.94077e-21 -4.16632e-24 -7.06365e-22 -2.18486e-23 -1.73368e-23 -2.93932e-21 -9.09161e-23 -7.79154e-35 
8.17492e-21 -7.82232e-23 -1.47938e-21 -6.73498e-23 -4.31206e-22 -8.15509e-21 -3.71267e-22 1.05676e-33 
4.52729e-21 -3.2015e-23 -8.35803e-22 -1.65426e-23 -1.73254e-22 -4.52309e-21 -8.95229e-23 1.18218e-33 
5.6826e-21 -4.917e-23 -1.0163e-21 -6.22917e-23 -2.74098e-22 -5.66535e-21 -3.47246e-22 8.10179e-34 
4.9149e-21 -2.45798e-23 -8.96459e-22 -3.09941e-23 -1.34629e-22 -4.91012e-21 -1.69762e-22 -1.61162e-34 
3.86212e-21 -7.51765e-24 -6.2258e-22 -2.16027e-23 -4.66037e-23 -3.85952e-21 -1.3392e-22 1.08338e-33 
3.03727e-21 -5.26126e-24 -5.00678e-22 -5.66324e-24 -3.19126e-23 -3.03691e-21 -3.43508e-23 -3.1368e-34 
4.79794e-21 -4.48484e-23 -1.70926e-21 0 -1.25847e-22 -4.79629e-21 0 9.50749e-34 
3.04553e-21 -1.03367e-24 -2.16994e-21 0 -1.45077e-24 -3.04553e-21 0 -4.00453e-35 
2.48812e-21 -4.09745e-24 -6.05173e-22 -1.46151e-23 -1.6841e-23 -2.48733e-21 -6.00697e-23 -1.72242e-34 
9.39667e-21 -1.11809e-22 -1.71783e-21 0 -6.10312e-22 -9.37683e-21 0 -5.98643e-34 
1.67894e-20 0 -1.40247e-20 -1.40247e-20 0 -1.18719e-20 -1.18719e-20 8.48886e-33 
0 0 0 0 0 0 0 0 
0 0 0 0 0 0 0 0 
0 0 0 0 0 0 0 0 
0 0 0 0 0 0 0 0 
0 0 0 0 0 0 0 0 
0 0 0 0 0 0 0 0 
0 0 0 0 0 0 0 0 
0 0 0 0 0 0 0 0 
0 0 0 0 0 0 0 0 
0 0 0 0 0 0 0 0 
0 0 0 0 0 0 0 0 
0 0 0 0 0 0 0 0 
0 0 0 0 0 0 0 0 
0 0 0 0 0 0 0 0 
0 0 0 0 0 0 0 0 
0 0 0 0 0 0 0 0 
0 0 0 0 0 0 0 0 
0 0 0 0 0 0 0 0 
0 0 0 0 0 0 0 0 
0 0 0 0 0 0 0 0 
0 0 0 0 0 0 0 0 
0 0 0 0 0 0 0 0 
0 0 0 0 0 0 0 0 
0 0 0 0 0 0 0 0 
0 0 0 0 0 0 0 0 
0 0 0 0 0 0 0 0 
0 0 0 0 0 0 0 0 
0 0 0 0 0 0 0 0 
0 0 0 0 0 0 0 0 
0 0 0 0 0 0 0 0 
0 0 0 0 0 0 0 0 
0 0 0 0 0 0 0 0 
0 0 0 0 0 0 0 0 
0 0 0 0 0 0 0 0 
0 0 0 0 0 0 0 0 
0 0 0 0 0 0 0 0 
0 0 0 0 0 0 0 0 
0 0 0 0 0 0 0 0 
0 0 0 0 0 0 0 0 
0 0 0 0 0 0 0 0 
0 0 0 0 0 0 0 0 
0 0 0 0 0 0 0 0 
0 0 0 0 0 0 0 0 
0 0 0 0 0 0 0 0 
0 0 0 0 0 0 0 0 
0 0 0 0 0 0 0 0 
1.68041e-20 0 1.4037e-20 1.4037e-20 0 1.18823e-20 1.18823e-20 8.65717e-33 
3.27079e-20 -1.33843e-21 -2.02832e-22 -7.55328e-21 -5.70488e-21 -8.64546e-22 -3.21949e-20 -1.62584e-32 
3.8451e-20 -2.33541e-21 -8.52796e-22 -1.29507e-20 -6.80955e-21 -2.48657e-21 -3.77614e-20 -1.0628e-32 
2.82091e-20 -1.0323e-21 -1.8154e-22 -5.77338e-21 -4.96274e-21 -8.72751e-22 -2.77554e-20 -9.98757e-34 
6.12781e-20 -1.8406e-21 -1.46867e-21 -7.27664e-21 -1.47471e-20 -1.17672e-20 -5.83015e-20 -5.40079e-33 
7.79569e-20 -1.29233e-21 -7.64167e-22 -5.19686e-21 -1.86244e-20 -1.10127e-20 -7.48942e-20 -4.58735e-33 
7.48514e-20 -1.3162e-21 -5.2113e-22 -5.41022e-21 -1.76168e-20 -6.97511e-21 -7.24136e-20 3.40124e-33 
4.77765e-20 -7.82424e-22 -2.86257e-22 -3.52852e-21 -1.03106e-20 -3.77222e-21 -4.64979e-20 6.41535e-33 
2.87949e-20 -9.04268e-22 -2.5312e-22 -4.96717e-21 -5.15084e-21 -1.44181e-21 -2.82937e-20 8.58331e-34 
3.20689e-20 -1.11704e-21 -2.99039e-22 -6.01648e-21 -5.847e-21 -1.56528e-21 -3.14924e-20 -2.9683e-33 
3.10984e-20 -9.99565e-22 -4.4089e-22 -5.31367e-21 -5.73012e-21 -2.52745e-21 -3.04612e-20 1.48742e-33 
3.46865e-20 -1.15653e-21 -5.8399e-22 -5.90436e-21 -6.63639e-21 -3.35105e-21 -3.38804e-20 -2.45586e-34 
8.52161e-20 -1.97334e-21 -1.73957e-21 -9.80601e-21 -1.6563e-20 -1.46009e-20 -8.23059e-20 2.67548e-32 
3.22812e-20 -1.21157e-21 -7.00299e-22 -6.05523e-21 -6.29317e-21 -3.6375e-21 -3.14522e-20 -3.14931e-33 
4.0286e-20 -8.77462e-22 -3.06297e-22 -4.32063e-21 -7.99861e-21 -2.79208e-21 -3.93852e-20 8.49355e-33 
3.84035e-20 -1.06257e-21 -5.7325e-22 -5.00685e-21 -7.92305e-21 -4.27442e-21 -3.73334e-20 -2.32695e-34 
5.61266e-20 -9.4328e-22 -4.47228e-22 -3.85179e-21 -1.32665e-20 -6.2899e-21 -5.41722e-20 -1.23896e-32 
4.34361e-20 -6.76048e-22 -2.97257e-22 -3.03356e-21 -9.40532e-21 -4.13551e-21 -4.22035e-20 -1.12138e-32 
4.26206e-20 -1.31195e-21 -5.83674e-22 -5.95649e-21 -9.126e-21 -4.06007e-21 -4.14337e-20 3.72135e-35 
4.19008e-20 -1.14255e-21 -7.76541e-22 -5.15636e-21 -8.96811e-21 -6.09524e-21 -4.04734e-20 2.59649e-33 
5.83653e-20 -1.35767e-21 -1.298e-21 -6.25179e-21 -1.21388e-20 -1.16054e-20 -5.58969e-20 1.29705e-32 
4.71346e-20 -1.24843e-21 -1.06753e-21 -5.35422e-21 -1.0507e-20 -8.98444e-21 -4.50617e-20 3.3018e-34 
4.52057e-20 -1.36178e-21 -8.10455e-22 -5.88516e-21 -1.01004e-20 -6.01124e-21 -4.36509e-20 1.80544e-33 
6.03026e-20 -1.02314e-21 -4.92963e-22 -4.21963e-21 -1.41192e-20 -6.80283e-21 -5.82303e-20 6.61979e-33 