ITEM: TIMESTEP
115
ITEM: NUMBER OF SURFS
6916
ITEM: BOX BOUNDS oo rr rr
-20 20
-20 20
-20 20
ITEM: SURFS f_save[1] f_save[2] f_save[3] f_save[4] f_save[5] f_save[6] f_save[7] f_save[8] 
1.22237e-18 -9.17161e-20 0 0 -1.22237e-18 0 0 0 
5.01134e-20 0 0 -1.50392e-19 0 0 -5.01134e-20 0 
0 0 0 0 0 0 0 0 
1.37694e-18 -3.35628e-20 0 0 -1.37694e-18 0 0 1.27592e-30 
1.3059e-18 -1.63237e-21 0 0 -1.3059e-18 0 0 0 
1.21076e-18 -1.51345e-21 0 0 -1.21076e-18 0 0 0 
1.173e-18 -1.46625e-21 0 0 -1.173e-18 0 0 0 
1.3471e-18 -3.28355e-20 0 0 -1.3471e-18 0 0 1.23607e-30 
1.30169e-18 -3.09151e-20 0 0 -1.30169e-18 0 0 0 
1.39213e-18 -3.30632e-20 0 0 -1.39213e-18 0 0 0 
1.4095e-18 -3.34759e-20 0 0 -1.4095e-18 0 0 0 
1.4022e-18 -3.33021e-20 0 0 -1.4022e-18 0 0 0 
1.43519e-18 -3.49827e-20 0 0 -1.43519e-18 0 0 0 
1.3839e-18 -3.28676e-20 0 0 -1.3839e-18 0 0 0 
1.36369e-18 -3.23875e-20 0 0 -1.36369e-18 0 0 0 
1.33006e-18 -3.24202e-20 0 0 -1.33006e-18 0 0 0 
1.36994e-18 -3.33923e-20 0 0 -1.36994e-18 0 0 1.26459e-30 
1.39243e-18 -3.30703e-20 0 0 -1.39243e-18 0 0 1.29019e-30 
1.38244e-18 -3.28331e-20 0 0 -1.38244e-18 0 0 0 
1.37008e-18 -3.33956e-20 0 0 -1.37008e-18 0 0 1.26609e-30 
1.3621e-18 -3.23497e-20 0 0 -1.3621e-18 0 0 0 
1.35701e-18 -3.22289e-20 0 0 -1.35701e-18 0 0 0 
1.37481e-18 -3.35112e-20 0 0 -1.37481e-18 0 0 0 
1.36684e-18 -3.24627e-20 0 0 -1.36684e-18 0 0 0 
1.41967e-18 -3.37171e-20 0 0 -1.41967e-18 0 0 0 
1.34915e-18 -3.20423e-20 0 0 -1.34915e-18 0 0 0 
1.39079e-18 -1.7385e-21 0 0 -1.39079e-18 0 0 0 
1.34668e-18 -3.19835e-20 0 0 -1.34668e-18 0 0 0 
1.37512e-18 -3.26591e-20 0 0 -1.37512e-18 0 0 0 
1.28781e-18 -1.60976e-21 0 0 -1.28781e-18 0 0 0 
1.27387e-18 -3.02544e-20 0 0 -1.27387e-18 0 0 0 
1.38304e-18 -3.28472e-20 0 0 -1.38304e-18 0 0 0 
1.80024e-18 -2.25031e-21 0 0 -1.80024e-18 0 0 0 
1.35365e-18 -3.29951e-20 0 0 -1.35365e-18 0 0 1.24307e-30 
1.39858e-18 -3.32163e-20 0 0 -1.39858e-18 0 0 0 
1.55988e-18 -1.94986e-21 0 0 -1.55988e-18 0 0 0 
1.36523e-18 -3.32775e-20 0 0 -1.36523e-18 0 0 1.25883e-30 
1.36463e-18 -3.24101e-20 0 0 -1.36463e-18 0 0 0 
1.49183e-18 -1.8648e-21 0 0 -1.49183e-18 0 0 0 
1.29642e-18 -3.07902e-20 0 0 -1.29642e-18 0 0 0 
1.32933e-18 -3.24024e-20 0 0 -1.32933e-18 0 0 0 
1.68911e-18 -2.1114e-21 0 0 -1.68911e-18 0 0 0 
1.30573e-18 -3.10112e-20 0 0 -1.30573e-18 0 0 0 
1.40003e-18 -3.41257e-20 0 0 -1.40003e-18 0 0 0 
1.48386e-18 -1.85483e-21 0 0 -1.48386e-18 0 0 0 
1.40291e-18 -3.33192e-20 0 0 -1.40291e-18 0 0 0 
1.34751e-18 -3.20034e-20 0 0 -1.34751e-18 0 0 0 
1.68751e-18 -2.10939e-21 0 0 -1.68751e-18 0 0 0 
1.27864e-18 -1.59831e-21 0 0 -1.27864e-18 0 0 0 
1.31939e-18 -1.64924e-21 0 0 -1.31939e-18 0 0 0 
1.36478e-18 -3.24138e-20 0 0 -1.36478e-18 0 0 1.25956e-30 
1.35009e-18 -3.20647e-20 0 0 -1.35009e-18 0 0 0 
1.35053e-18 -3.20753e-20 0 0 -1.35053e-18 0 0 1.24039e-30 
1.62774e-18 -2.03467e-21 0 0 -1.62774e-18 0 0 0 
1.38834e-18 -3.29731e-20 0 0 -1.38834e-18 0 0 0 
1.34197e-18 -3.18718e-20 0 0 -1.34197e-18 0 0 0 
1.45391e-18 -3.45304e-20 0 0 -1.45391e-18 0 0 0 
1.58141e-18 -1.97676e-21 0 0 -1.58141e-18 0 0 0 
1.42321e-18 -3.38013e-20 0 0 -1.42321e-18 0 0 0 
1.39851e-18 -3.32146e-20 0 0 -1.39851e-18 0 0 0 
1.30883e-18 -3.10847e-20 0 0 -1.30883e-18 0 0 0 
1.80085e-18 -2.25108e-21 0 0 -1.80085e-18 0 0 0 
1.29343e-18 -3.07191e-20 0 0 -1.29343e-18 0 0 0 
1.24195e-18 -3.02726e-20 0 0 -1.24195e-18 0 0 1.15023e-30 
1.41258e-18 -1.76573e-21 0 0 -1.41258e-18 0 0 0 
1.281e-18 -3.04237e-20 0 0 -1.281e-18 0 0 0 
1.32818e-18 -3.15443e-20 0 0 -1.32818e-18 0 0 0 
1.60969e-18 -2.01212e-21 0 0 -1.60969e-18 0 0 0 
1.27234e-18 -3.02182e-20 0 0 -1.27234e-18 0 0 0 
1.35777e-18 -3.2247e-20 0 0 -1.35777e-18 0 0 0 
1.63827e-18 -2.04784e-21 0 0 -1.63827e-18 0 0 0 
1.41371e-18 -3.35757e-20 0 0 -1.41371e-18 0 0 0 
1.29016e-18 -3.06414e-20 0 0 -1.29016e-18 0 0 0 
1.32671e-18 -1.65839e-21 0 0 -1.32671e-18 0 0 0 
1.65119e-18 -2.06399e-21 0 0 -1.65119e-18 0 0 0 
1.39519e-18 -3.31357e-20 0 0 -1.39519e-18 0 0 0 
1.46171e-18 -3.47156e-20 0 0 -1.46171e-18 0 0 0 
1.54513e-18 -1.93142e-21 0 0 -1.54513e-18 0 0 0 
1.38929e-18 -3.29956e-20 0 0 -1.38929e-18 0 0 0 
1.30876e-18 -3.10831e-20 0 0 -1.30876e-18 0 0 0 
1.37972e-18 -3.27683e-20 0 0 -1.37972e-18 0 0 0 
1.37083e-18 -3.25572e-20 0 0 -1.37083e-18 0 0 0 
1.38e-18 -3.27751e-20 0 0 -1.38e-18 0 0 0 
1.40176e-18 -3.4168e-20 0 0 -1.40176e-18 0 0 0 
1.37889e-18 -3.44724e-20 0 0 -1.37889e-18 0 0 0 
1.33346e-18 -3.33364e-20 0 0 -1.33346e-18 0 0 0 
1.28914e-18 -3.22284e-20 0 0 -1.28914e-18 0 0 0 
1.32472e-18 -3.31182e-20 0 0 -1.32472e-18 0 0 0 
1.35213e-18 -1.16283e-18 0 0 -1.35213e-18 0 0 1.24732e-30 
1.36061e-18 -6.46289e-19 0 0 -1.36061e-18 0 0 1.25392e-30 
1.35665e-18 -6.44408e-19 0 0 -1.35665e-18 0 0 0 
1.34631e-18 -6.39499e-19 0 0 -1.34631e-18 0 0 0 
1.34254e-18 -6.54489e-19 0 0 -1.34254e-18 0 0 0 
1.36651e-18 -1.1752e-18 0 0 -1.36651e-18 0 0 1.26091e-30 
1.36402e-18 -6.47912e-19 0 0 -1.36402e-18 0 0 0 
1.34767e-18 -6.40145e-19 0 0 -1.34767e-18 0 0 0 
1.36159e-18 -6.46756e-19 0 0 -1.36159e-18 0 0 0 
1.35027e-18 -6.58256e-19 0 0 -1.35027e-18 0 0 0 
1.37434e-18 -3.43585e-20 0 0 -1.37434e-18 0 0 1.26479e-30 
1.26508e-18 -3.16269e-20 0 0 -1.26508e-18 0 0 0 
1.46351e-18 -3.65878e-20 0 0 -1.46351e-18 0 0 1.3435e-30 
2.8833e-21 0 0 -1.68673e-20 0 0 -2.8833e-21 0 
0 0 0 0 0 0 0 0 
0 0 0 0 0 0 0 0 
0 0 0 0 0 0 0 0 
0 0 0 0 0 0 0 0 
5.56496e-22 1.32168e-23 0 0 5.56496e-22 0 0 0 
2.4602e-21 5.84298e-23 0 0 2.4602e-21 0 0 0 
7.88084e-21 1.87171e-22 0 0 7.88084e-21 0 0 0 
6.90757e-22 1.64055e-23 0 0 6.90757e-22 0 0 0 
2.03243e-21 4.82702e-23 0 0 2.03243e-21 0 0 0 
5.83514e-21 7.11157e-23 0 0 5.83514e-21 0 0 0 
1.99853e-21 4.74653e-23 0 0 1.99853e-21 0 0 1.76286e-33 
2.1151e-21 5.02336e-23 0 0 2.1151e-21 0 0 0 
7.6124e-22 1.80794e-23 0 0 7.6124e-22 0 0 0 
4.71093e-21 1.11885e-22 0 0 4.71093e-21 0 0 0 
4.08089e-21 9.6921e-23 0 0 4.08089e-21 0 0 0 
1.85918e-21 4.41555e-23 0 0 1.85918e-21 0 0 0 
1.91381e-21 4.5453e-23 0 0 1.91381e-21 0 0 0 
0 0 0 0 0 0 0 0 
3.86413e-21 9.17732e-23 0 0 3.86413e-21 0 0 0 
0 0 0 0 0 0 0 0 
0 0 0 0 0 0 0 0 
2.13519e-21 5.07108e-23 0 0 2.13519e-21 0 0 0 
3.94835e-21 9.37734e-23 0 0 3.94835e-21 0 0 0 
0 0 0 0 0 0 0 0 
0 0 0 0 0 0 0 0 
0 0 0 0 0 0 0 0 
0 0 0 0 0 0 0 0 
0 0 0 0 0 0 0 0 
1.37192e-21 3.25831e-23 0 0 1.37192e-21 0 0 0 
6.8464e-22 1.62602e-23 0 0 6.8464e-22 0 0 0 
2.54958e-21 6.05525e-23 0 0 2.54958e-21 0 0 0 
0 0 0 0 0 0 0 0 
0 0 0 0 0 0 0 0 
1.76808e-21 4.19919e-23 0 0 1.76808e-21 0 0 0 
0 0 0 0 0 0 0 0 
0 0 0 0 0 0 0 0 
0 0 0 0 0 0 0 0 
0 0 0 0 0 0 0 0 
0 0 0 0 0 0 0 0 
2.98275e-21 7.08404e-23 0 0 2.98275e-21 0 0 0 
0 0 0 0 0 0 0 0 
5.52791e-21 1.31288e-22 0 0 5.52791e-21 0 0 0 
5.2732e-22 1.25239e-23 0 0 5.2732e-22 0 0 0 
0 0 0 0 0 0 0 0 
2.06817e-21 4.91191e-23 0 0 2.06817e-21 0 0 0 
3.59672e-21 8.54221e-23 0 0 3.59672e-21 0 0 0 
1.8018e-21 4.27928e-23 0 0 1.8018e-21 0 0 0 
0 0 0 0 0 0 0 0 
1.50361e-21 3.66506e-23 0 0 1.50361e-21 0 0 0 
0 0 0 0 0 0 0 0 
1.79877e-21 4.3845e-23 0 0 1.79877e-21 0 0 1.71767e-33 
3.00785e-21 7.14368e-23 0 0 3.00785e-21 0 0 0 
5.74855e-21 1.40121e-22 0 0 5.74855e-21 0 0 0 
2.00565e-21 4.88876e-23 0 0 2.00565e-21 0 0 1.71767e-33 
3.77554e-21 8.96694e-23 0 0 3.77554e-21 0 0 0 
0 0 0 0 0 0 0 0 
1.20357e-21 2.93372e-23 0 0 1.20357e-21 0 0 0 
0 0 0 0 0 0 0 0 
0 0 0 0 0 0 0 0 
0 0 0 0 0 0 0 0 
0 0 0 0 0 0 0 0 
0 0 0 0 0 0 0 0 
0 0 0 0 0 0 0 0 
0 0 0 0 0 0 0 0 
1.89748e-21 4.50653e-23 0 0 1.89748e-21 0 0 0 
0 0 0 0 0 0 0 0 
2.00184e-21 4.87949e-23 0 0 2.00184e-21 0 0 0 
1.51037e-21 3.58713e-23 0 0 1.51037e-21 0 0 0 
0 0 0 0 0 0 0 0 
1.79646e-21 4.37889e-23 0 0 1.79646e-21 0 0 0 
6.64464e-22 1.57811e-23 0 0 6.64464e-22 0 0 7.05143e-34 
0 0 0 0 0 0 0 0 
0 0 0 0 0 0 0 0 
3.88292e-21 9.22197e-23 0 0 3.88292e-21 0 0 0 
4.10575e-21 9.75119e-23 0 0 4.10575e-21 0 0 0 
0 0 0 0 0 0 0 0 
7.82083e-22 1.85745e-23 0 0 7.82083e-22 0 0 0 
1.75565e-21 4.16969e-23 0 0 1.75565e-21 0 0 1.76286e-33 
2.04309e-21 4.98002e-23 0 0 2.04309e-21 0 0 1.71767e-33 
2.23263e-21 5.44205e-23 0 0 2.23263e-21 0 0 0 
0 0 0 0 0 0 0 0 
0 0 0 0 0 0 0 0 
2.9023e-19 -3.0474e-19 -3.73228e-19 -3.73228e-19 -1.45115e-19 -1.77729e-19 -1.77729e-19 -9.63478e-32 
2.3621e-21 0 0 -3.49304e-19 0 0 -2.3621e-21 0 
1.41714e-21 0 2.87094e-19 -2.87094e-19 0 1.00207e-21 -1.00207e-21 -6.97253e-35 
2.93159e-19 -3.07815e-19 3.76995e-19 3.76995e-19 -1.4658e-19 1.79523e-19 1.79523e-19 -9.82976e-32 
2.3792e-21 0 0 3.51833e-19 0 0 2.3792e-21 0 
2.346e-21 0 -2.13995e-19 2.13995e-19 0 -1.65888e-21 1.65888e-21 1.47244e-34 
2.60046e-21 0 -1.52127e-20 0 0 -2.60046e-21 0 0 
2.61676e-21 0 1.5308e-20 0 0 2.61676e-21 0 0 
2.52355e-21 0 0 -1.43842e-20 0 0 -2.52355e-21 0 
2.58956e-21 0 0 1.47605e-20 0 0 2.58956e-21 0 
2.60096e-21 0 0 -1.48255e-20 0 0 -2.60096e-21 0 
2.52793e-21 0 0 1.44092e-20 0 0 2.52793e-21 0 
2.58624e-21 0 0 1.47416e-20 0 0 2.58624e-21 0 
2.52416e-21 0 0 -1.43877e-20 0 0 -2.52416e-21 0 
2.51916e-21 0 0 -1.43592e-20 0 0 -2.51916e-21 0 
2.49251e-21 0 0 1.42073e-20 0 0 2.49251e-21 0 
2.52489e-21 0 0 -1.43919e-20 0 0 -2.52489e-21 0 
2.50723e-21 0 0 1.42912e-20 0 0 2.50723e-21 0 
2.60919e-21 0 -1.48724e-20 0 0 -2.60919e-21 0 0 
2.5428e-21 0 1.44939e-20 0 0 2.5428e-21 0 0 
2.57734e-21 0 0 -1.46908e-20 0 0 -2.57734e-21 0 
2.60427e-21 0 0 1.48443e-20 0 0 2.60427e-21 0 
2.65288e-21 0 -1.51214e-20 0 0 -2.65288e-21 0 0 
2.67981e-21 0 1.52749e-20 0 0 2.67981e-21 0 0 
2.57428e-21 0 -1.46734e-20 0 0 -2.57428e-21 0 0 
2.62373e-21 0 1.49553e-20 0 0 2.62373e-21 0 0 
2.57607e-21 0 1.507e-20 0 0 2.57607e-21 0 0 
2.62171e-21 0 -1.5337e-20 0 0 -2.62171e-21 0 0 
2.50039e-21 0 1.46273e-20 0 0 2.50039e-21 0 0 
2.51373e-21 0 -1.47053e-20 0 0 -2.51373e-21 0 0 
2.55924e-21 0 -1.45877e-20 0 0 -2.55924e-21 0 0 
2.55432e-21 0 1.45596e-20 0 0 2.55432e-21 0 0 
2.53357e-21 0 1.48214e-20 0 0 2.53357e-21 0 0 
2.57713e-21 0 -7.53809e-21 0 0 -2.57713e-21 0 0 
2.58303e-21 0 0 7.55535e-21 0 0 2.58303e-21 0 
2.59298e-21 0 0 -1.478e-20 0 0 -2.59298e-21 0 
2.94663e-21 0 0 1.67958e-20 0 0 2.94663e-21 0 
2.53057e-21 0 0 1.48039e-20 0 0 2.53057e-21 0 
2.51882e-21 0 0 -1.47351e-20 0 0 -2.51882e-21 0 
2.5084e-21 0 -1.42979e-20 0 0 -2.5084e-21 0 0 
2.53689e-21 0 1.44603e-20 0 0 2.53689e-21 0 0 
2.64622e-21 0 -1.50835e-20 0 0 -2.64622e-21 0 0 
2.55789e-21 0 1.458e-20 0 0 2.55789e-21 0 0 
2.59304e-21 0 0 1.47803e-20 0 0 2.59304e-21 0 
2.57641e-21 0 0 -1.46855e-20 0 0 -2.57641e-21 0 
2.50746e-21 0 -1.42925e-20 0 0 -2.50746e-21 0 0 
2.53799e-21 0 1.44665e-20 0 0 2.53799e-21 0 0 
2.63481e-21 0 0 1.50184e-20 0 0 2.63481e-21 0 
2.46797e-21 0 0 -1.40674e-20 0 0 -2.46797e-21 0 
2.52018e-21 0 -1.4365e-20 0 0 -2.52018e-21 0 0 
2.55105e-21 0 1.4541e-20 0 0 2.55105e-21 0 0 
2.52753e-21 0 0 1.44069e-20 0 0 2.52753e-21 0 
2.87914e-21 0 0 -1.64111e-20 0 0 -2.87914e-21 0 
2.60831e-21 0 1.48674e-20 0 0 2.60831e-21 0 0 
2.55254e-21 0 -1.45495e-20 0 0 -2.55254e-21 0 0 
2.53627e-21 0 1.44567e-20 0 0 2.53627e-21 0 0 
2.58461e-21 0 -1.47323e-20 0 0 -2.58461e-21 0 0 
2.48463e-21 0 0 -1.41624e-20 0 0 -2.48463e-21 0 
2.59684e-21 0 0 1.4802e-20 0 0 2.59684e-21 0 
2.57128e-21 0 0 1.46563e-20 0 0 2.57128e-21 0 
2.89847e-21 0 0 -1.65213e-20 0 0 -2.89847e-21 0 
2.56461e-21 0 0 1.46183e-20 0 0 2.56461e-21 0 
2.94862e-21 0 0 -1.68071e-20 0 0 -2.94862e-21 0 
2.53621e-21 0 -1.44564e-20 0 0 -2.53621e-21 0 0 
2.94294e-21 0 1.67748e-20 0 0 2.94294e-21 0 0 
2.60726e-21 0 -1.48614e-20 0 0 -2.60726e-21 0 0 
2.55584e-21 0 1.45683e-20 0 0 2.55584e-21 0 0 
2.9062e-21 0 1.70013e-20 0 0 2.9062e-21 0 0 
2.50415e-21 0 0 -1.46493e-20 0 0 -2.50415e-21 0 
2.60432e-21 0 -1.52353e-20 0 0 -2.60432e-21 0 0 
2.56468e-21 0 1.50034e-20 0 0 2.56468e-21 0 0 
2.50582e-21 0 1.4659e-20 0 0 2.50582e-21 0 0 
2.58137e-21 0 -1.5101e-20 0 0 -2.58137e-21 0 0 
2.55004e-21 0 0 -1.49177e-20 0 0 -2.55004e-21 0 
2.55452e-21 0 0 1.49439e-20 0 0 2.55452e-21 0 
2.53712e-21 0 0 1.48422e-20 0 0 2.53712e-21 0 
2.43207e-21 0 0 -1.42276e-20 0 0 -2.43207e-21 0 
2.90861e-21 0 -1.6579e-20 0 0 -2.90861e-21 0 0 
2.45589e-21 0 1.39986e-20 0 0 2.45589e-21 0 0 
2.52486e-21 0 0 -1.47704e-20 0 0 -2.52486e-21 0 
2.58442e-21 0 0 1.51189e-20 0 0 2.58442e-21 0 
2.5444e-21 0 -7.44238e-21 0 0 -2.5444e-21 0 0 
2.93768e-21 0 -1.71854e-20 0 0 -2.93768e-21 0 0 
2.97003e-21 0 1.73747e-20 0 0 2.97003e-21 0 0 
2.90952e-21 0 -1.70207e-20 0 0 -2.90952e-21 0 0 
2.95011e-21 0 1.72582e-20 0 0 2.95011e-21 0 0 
2.8813e-21 0 -1.64234e-20 0 0 -2.8813e-21 0 0 
2.5702e-21 0 1.46501e-20 0 0 2.5702e-21 0 0 
2.89439e-21 0 0 -1.69322e-20 0 0 -2.89439e-21 0 
2.88564e-21 0 0 1.6881e-20 0 0 2.88564e-21 0 
2.60045e-21 0 1.48225e-20 0 0 2.60045e-21 0 0 
3.0354e-21 0 -1.73018e-20 0 0 -3.0354e-21 0 0 
2.96629e-21 0 0 1.69078e-20 0 0 2.96629e-21 0 
2.92705e-21 0 0 -1.66842e-20 0 0 -2.92705e-21 0 
2.95662e-21 0 0 1.72962e-20 0 0 2.95662e-21 0 
2.55554e-21 0 7.47495e-21 0 0 2.55554e-21 0 0 
2.56624e-21 0 -1.46276e-20 0 0 -2.56624e-21 0 0 
3.02101e-21 0 1.72198e-20 0 0 3.02101e-21 0 0 
2.95906e-21 0 1.68666e-20 0 0 2.95906e-21 0 0 
2.85186e-21 0 -1.62556e-20 0 0 -2.85186e-21 0 0 
2.88917e-21 0 1.64683e-20 0 0 2.88917e-21 0 0 
2.92913e-21 0 -1.6696e-20 0 0 -2.92913e-21 0 0 
2.87743e-21 0 0 -1.64014e-20 0 0 -2.87743e-21 0 
2.88322e-21 0 0 1.64343e-20 0 0 2.88322e-21 0 
2.52727e-21 0 1.44055e-20 0 0 2.52727e-21 0 0 
2.94973e-21 0 -1.68134e-20 0 0 -2.94973e-21 0 0 
2.95191e-21 0 0 -1.68259e-20 0 0 -2.95191e-21 0 
2.92495e-21 0 0 1.66722e-20 0 0 2.92495e-21 0 
2.85341e-21 0 1.62644e-20 0 0 2.85341e-21 0 0 
2.56412e-21 0 -1.46155e-20 0 0 -2.56412e-21 0 0 
2.88807e-21 0 -1.6462e-20 0 0 -2.88807e-21 0 0 
2.84511e-21 0 1.62172e-20 0 0 2.84511e-21 0 0 
2.90899e-21 0 0 -1.65813e-20 0 0 -2.90899e-21 0 
2.84771e-21 0 0 1.6232e-20 0 0 2.84771e-21 0 
2.91356e-21 0 0 -1.66073e-20 0 0 -2.91356e-21 0 
2.99111e-21 0 0 1.70493e-20 0 0 2.99111e-21 0 
2.91443e-21 0 0 1.66122e-20 0 0 2.91443e-21 0 
2.86206e-21 0 0 -1.63137e-20 0 0 -2.86206e-21 0 
3.00662e-21 0 -1.71378e-20 0 0 -3.00662e-21 0 0 
2.9447e-21 0 1.67848e-20 0 0 2.9447e-21 0 0 
2.88133e-21 0 0 1.64236e-20 0 0 2.88133e-21 0 
2.99154e-21 0 0 -1.70518e-20 0 0 -2.99154e-21 0 
2.9295e-21 0 0 -1.66981e-20 0 0 -2.9295e-21 0 
2.52527e-21 0 0 1.4394e-20 0 0 2.52527e-21 0 
2.94434e-21 0 1.67828e-20 0 0 2.94434e-21 0 0 
2.93777e-21 0 -1.67453e-20 0 0 -2.93777e-21 0 0 
2.90653e-21 0 -1.65672e-20 0 0 -2.90653e-21 0 0 
2.93431e-21 0 1.67255e-20 0 0 2.93431e-21 0 0 
2.90862e-21 0 0 1.65791e-20 0 0 2.90862e-21 0 
2.91847e-21 0 0 -1.66353e-20 0 0 -2.91847e-21 0 
2.91729e-21 0 1.66286e-20 0 0 2.91729e-21 0 0 
2.98999e-21 0 -1.7043e-20 0 0 -2.98999e-21 0 0 
2.92275e-21 0 0 1.66597e-20 0 0 2.92275e-21 0 
2.93316e-21 0 0 -1.6719e-20 0 0 -2.93316e-21 0 
2.28056e-21 -3.09099e-24 0 -1.6249e-21 -4.33822e-24 0 -2.28056e-21 1.52781e-34 
8.54666e-21 -1.04776e-22 -3.52058e-23 -1.57457e-21 -5.67321e-22 -1.90625e-22 -8.52568e-21 7.3677e-35 
4.30832e-21 -3.08799e-23 -1.35843e-23 -7.96816e-22 -1.66816e-22 -7.33833e-23 -4.30447e-21 6.27635e-34 
9.16158e-21 -1.12823e-22 -7.54785e-23 -1.65793e-21 -6.21374e-22 -4.15697e-22 -9.13103e-21 -1.03764e-33 
2.12752e-21 -2.532e-25 -7.60849e-28 -5.3188e-22 -1.0128e-24 -3.04339e-27 -2.12752e-21 -2.47021e-34 
1.94525e-21 -2.75592e-24 -1.44523e-23 -4.67243e-22 -1.14679e-23 -6.01387e-23 -1.94428e-21 -4.26841e-34 
2.60966e-21 -4.61326e-24 -1.45971e-23 -4.20681e-22 -2.85991e-23 -9.04919e-23 -2.60793e-21 1.6871e-34 
2.89587e-21 -9.44537e-24 -2.27787e-23 -5.23265e-22 -5.2215e-23 -1.25923e-22 -2.89266e-21 1.56229e-34 
5.22669e-21 -3.6913e-23 -1.64799e-23 -9.66666e-22 -1.99411e-22 -8.90277e-23 -5.22213e-21 1.0065e-33 
3.36667e-21 -1.88211e-23 -3.18462e-23 -6.05477e-22 -1.04457e-22 -1.76747e-22 -3.36041e-21 -8.13289e-34 
4.85573e-21 -4.64083e-23 -3.5485e-23 -8.82428e-22 -2.54813e-22 -1.94837e-22 -4.84513e-21 3.5632e-34 
1.59962e-21 -2.49129e-24 -6.05936e-24 -5.23133e-22 -7.61722e-24 -1.85267e-23 -1.5995e-21 -5.15252e-34 
3.14476e-21 -9.11753e-24 -5.86367e-24 -5.18398e-22 -5.52977e-23 -3.55631e-23 -3.14408e-21 2.92018e-34 
2.87434e-21 -3.95101e-24 -1.36483e-23 -3.44402e-22 -3.29466e-23 -1.1381e-22 -2.87189e-21 7.85538e-35 
2.35354e-21 -4.08376e-24 -6.642e-24 -3.84357e-22 -2.5001e-23 -4.06627e-23 -2.35306e-21 -1.28159e-35 
9.31241e-22 -2.95366e-25 0 -1.74608e-23 -1.57506e-23 0 -9.31108e-22 1.00469e-33 
3.33433e-21 -1.07755e-23 1.74852e-23 -6.10057e-22 -5.88616e-23 9.55132e-23 -3.33245e-21 -4.74562e-34 
2.7161e-21 -9.95316e-24 0 -9.6761e-22 -2.79372e-23 0 -2.71595e-21 2.46788e-34 
2.80548e-21 -3.57588e-25 9.00276e-24 -6.75838e-22 -1.48425e-24 3.73681e-23 -2.80523e-21 2.60675e-35 
2.03834e-21 -2.8878e-24 1.51439e-23 -4.89602e-22 -1.20167e-23 6.30166e-23 -2.03733e-21 2.74398e-34 
5.84979e-21 -5.59747e-23 4.8194e-23 -1.05861e-21 -3.08562e-22 2.6567e-22 -5.8356e-21 2.13488e-34 
4.26738e-21 -3.0177e-23 1.55929e-23 -7.87821e-22 -1.63308e-22 8.43835e-23 -4.26342e-21 1.69932e-34 
4.96057e-21 -4.29224e-23 5.43769e-23 -8.87166e-22 -2.39271e-22 3.03124e-22 -4.94551e-21 5.36806e-34 
3.37891e-21 -1.68982e-23 2.13079e-23 -6.16301e-22 -9.25554e-23 1.16709e-22 -3.37563e-21 -4.01312e-34 
2.04465e-21 -3.97992e-24 1.14367e-23 -3.29601e-22 -2.46725e-23 7.08989e-23 -2.04327e-21 1.68707e-34 
2.56227e-21 -4.43845e-24 4.77756e-24 -4.22377e-22 -2.69218e-23 2.89787e-23 -2.56196e-21 1.26977e-34 
3.60187e-21 -3.36682e-23 0 -1.28316e-21 -9.44748e-23 0 -3.60063e-21 5.13992e-34 
2.0694e-21 -7.02367e-25 0 -1.47444e-21 -9.85778e-25 0 -2.0694e-21 9.84266e-35 
2.61841e-21 -4.31202e-24 1.53804e-23 -6.36865e-22 -1.77229e-23 6.32155e-23 -2.61759e-21 1.76385e-34 
7.41007e-21 -8.81708e-23 0 -1.35465e-21 -4.81283e-22 0 -7.39443e-21 -8.79872e-34 
2.5132e-21 -3.4063e-24 1.79066e-21 0 -4.78076e-24 2.5132e-21 0 -4.26025e-35 
8.69812e-21 -1.06633e-22 1.60248e-21 -3.58297e-23 -5.77375e-22 8.67677e-21 -1.94003e-22 -1.75691e-34 
4.00877e-21 -2.87328e-23 7.41413e-22 -1.26397e-23 -1.55217e-22 4.00518e-21 -6.82809e-23 -2.03557e-34 
1.04534e-20 -1.28732e-22 1.8917e-21 -8.6121e-23 -7.08988e-22 1.04185e-20 -4.7431e-22 -2.24823e-34 
2.02027e-21 -2.40436e-25 5.05067e-22 -7.22493e-28 -9.61744e-25 2.02027e-21 -2.88997e-27 -7.53625e-35 
2.35188e-21 -3.33201e-24 5.64915e-22 -1.74734e-23 -1.38651e-23 2.35072e-21 -7.27101e-23 2.87464e-34 
2.49597e-21 -4.41228e-24 4.02353e-22 -1.39611e-23 -2.73531e-23 2.49431e-21 -8.65494e-23 9.08436e-35 
3.40926e-21 -1.11199e-23 6.16031e-22 -2.6817e-23 -6.14719e-23 3.40548e-21 -1.48247e-22 -6.71207e-34 
4.65605e-21 -3.28829e-23 8.61128e-22 -1.46807e-23 -1.7764e-22 4.65199e-21 -7.93079e-23 1.52671e-34 
3.88839e-21 -2.17377e-23 6.99305e-22 -3.67813e-23 -1.20645e-22 3.88116e-21 -2.04137e-22 -2.09132e-34 
5.39883e-21 -5.1599e-23 9.81125e-22 -3.94539e-23 -2.83313e-22 5.38704e-21 -2.16629e-22 1.72413e-35 
1.88639e-21 -2.93791e-24 6.16915e-22 -7.14562e-24 -8.98275e-24 1.88624e-21 -2.1848e-23 3.45635e-34 
2.75316e-21 -7.98217e-24 4.53845e-22 -5.1335e-24 -4.84117e-23 2.75256e-21 -3.11346e-23 -1.58706e-34 
2.59568e-21 -3.56798e-24 3.11014e-22 -1.23251e-23 -2.97525e-23 2.59347e-21 -1.02776e-22 -2.00749e-34 
2.47572e-21 -4.29576e-24 4.0431e-22 -6.9868e-24 -2.62989e-23 2.47521e-21 -4.27736e-23 3.33214e-34 
5.09802e-22 -1.61696e-25 9.55881e-24 0 -8.62256e-24 5.09729e-22 0 0 
2.6052e-21 -8.4192e-24 4.76652e-22 1.36616e-23 -4.599e-23 2.60372e-21 7.46268e-23 -9.14819e-35 
2.96647e-21 -1.08706e-23 1.0568e-21 0 -3.05124e-23 2.96631e-21 0 1.85091e-34 
1.8831e-21 -2.40021e-25 4.53637e-22 6.04285e-24 -9.96264e-25 1.88293e-21 2.50823e-23 -2.60675e-35 
2.28389e-21 -3.23568e-24 5.48584e-22 1.69683e-23 -1.34643e-23 2.28276e-21 7.06081e-23 -4.79107e-34 
5.65185e-21 -5.40808e-23 1.02279e-21 4.65633e-23 -2.98121e-22 5.63815e-21 2.56681e-22 5.01986e-34 
3.97495e-21 -2.81091e-23 7.33834e-22 1.45244e-23 -1.52117e-22 3.97126e-21 7.8601e-23 6.91056e-34 
4.80854e-21 -4.16069e-23 8.59976e-22 5.27104e-23 -2.31938e-22 4.79394e-21 2.93834e-22 4.25944e-34 
3.85551e-21 -1.92817e-23 7.0323e-22 2.43134e-23 -1.0561e-22 3.85176e-21 1.3317e-22 3.72647e-34 
2.82782e-21 -5.50437e-24 4.55848e-22 1.58173e-23 -3.41229e-23 2.82591e-21 9.80554e-23 2.98482e-34 
3.24774e-21 -5.62585e-24 5.35373e-22 6.05568e-24 -3.4124e-23 3.24735e-21 3.67312e-23 -1.14279e-34 
4.46937e-21 -4.17772e-23 1.59221e-21 0 -1.17229e-22 4.46783e-21 0 3.49515e-34 
2.17023e-21 -7.36592e-25 1.54629e-21 0 -1.03381e-24 2.17023e-21 0 3.81954e-35 
2.23402e-21 -3.679e-24 5.4337e-22 1.31225e-23 -1.51211e-23 2.23332e-21 5.39351e-23 -1.97895e-34 
8.00485e-21 -9.52479e-23 1.46339e-21 0 -5.19914e-22 7.98795e-21 0 -4.05655e-34 
2.27375e-21 -3.08175e-24 0 1.62005e-21 -4.32526e-24 0 2.27374e-21 -2.87934e-34 
8.09189e-21 -9.92011e-23 3.33325e-23 1.49079e-21 -5.37134e-22 1.80482e-22 8.07203e-21 -5.66746e-34 
5.1524e-21 -3.69299e-23 1.62457e-23 9.52927e-22 -1.99498e-22 8.77604e-23 5.14779e-21 -2.88373e-34 
9.16103e-21 -1.12817e-22 7.54739e-23 1.65783e-21 -6.21337e-22 4.15672e-22 9.13048e-21 2.13294e-34 
1.87041e-21 -2.22602e-25 6.68902e-28 4.67603e-22 -8.90406e-25 2.67561e-27 1.87041e-21 2.30274e-34 
2.5546e-21 -3.61921e-24 1.89795e-23 6.13608e-22 -1.50602e-23 7.89773e-23 2.55334e-21 4.35552e-34 
2.70303e-21 -4.77831e-24 1.51193e-23 4.35732e-22 -2.96223e-23 9.37294e-23 2.70124e-21 -3.3093e-34 
2.72231e-21 -8.87928e-24 2.14135e-23 4.91904e-22 -4.90855e-23 1.18376e-22 2.71929e-21 -4.91833e-34 
4.61048e-21 -3.25611e-23 1.4537e-23 8.52699e-22 -1.75901e-22 7.85316e-23 4.60645e-21 3.50578e-34 
3.66108e-21 -2.04669e-23 3.46311e-23 6.58424e-22 -1.13592e-22 1.92203e-22 3.65427e-21 -8.53954e-34 
5.57551e-21 -5.32875e-23 4.0745e-23 1.01323e-21 -2.92584e-22 2.23718e-22 5.56333e-21 -7.01146e-34 
1.84356e-21 -2.87121e-24 6.98339e-24 6.02909e-22 -8.77881e-24 2.13519e-23 1.84341e-21 2.46425e-34 
2.45982e-21 -7.1317e-24 4.58654e-24 4.05489e-22 -4.32536e-23 2.78173e-23 2.45929e-21 -4.76117e-34 
2.80878e-21 -3.8609e-24 1.3337e-23 3.36548e-22 -3.21952e-23 1.11214e-22 2.80639e-21 -2.96759e-34 
3.38226e-21 -5.86875e-24 9.54517e-24 5.52357e-22 -3.59288e-23 5.84361e-23 3.38156e-21 8.84299e-34 
2.17757e-21 -6.9067e-25 0 4.08295e-23 -3.68304e-23 0 2.17726e-21 -5.5816e-34 
3.23167e-21 -1.04438e-23 -1.69469e-23 5.91274e-22 -5.70493e-23 -9.25725e-23 3.22985e-21 -2.57293e-34 
2.8026e-21 -1.02702e-23 0 9.98428e-22 -2.8827e-23 0 2.80246e-21 -3.84872e-34 
2.26516e-21 -2.88719e-25 -7.2689e-24 5.45677e-22 -1.1984e-24 -3.01713e-23 2.26496e-21 -5.64796e-35 
2.37153e-21 -3.35984e-24 -1.76193e-23 5.69633e-22 -1.39809e-23 -7.33174e-23 2.37035e-21 -2.48265e-34 
5.92206e-21 -5.66663e-23 -4.87894e-23 1.07169e-21 -3.12374e-22 -2.68952e-22 5.9077e-21 2.42338e-34 
4.60897e-21 -3.25926e-23 -1.6841e-23 8.50882e-22 -1.7638e-22 -9.1138e-23 4.60469e-21 -2.09583e-34 
5.00062e-21 -4.3269e-23 -5.4816e-23 8.94329e-22 -2.41203e-22 -3.05572e-22 4.98544e-21 1.31284e-33 
3.42003e-21 -1.71038e-23 -2.15672e-23 6.23801e-22 -9.36818e-23 -1.18129e-22 3.41671e-21 -4.58643e-34 
2.68313e-21 -5.22272e-24 -1.5008e-23 4.32524e-22 -3.23769e-23 -9.30382e-23 2.68132e-21 1.16797e-34 
2.66151e-21 -4.61036e-24 -4.96261e-24 4.38737e-22 -2.79645e-23 -3.01011e-23 2.66119e-21 -1.71419e-34 
3.92487e-21 -3.66875e-23 0 1.39824e-21 -1.02947e-22 0 3.92352e-21 1.02211e-33 
2.3212e-21 -7.87831e-25 0 1.65385e-21 -1.10573e-24 0 2.3212e-21 -9.69576e-35 
2.60347e-21 -4.28742e-24 -1.52927e-23 6.3323e-22 -1.76218e-23 -6.28547e-23 2.60265e-21 -1.29062e-34 
8.30654e-21 -9.88376e-23 0 1.51854e-21 -5.39509e-22 0 8.289e-21 -2.28538e-34 
2.30178e-21 -3.11975e-24 -1.64002e-21 0 -4.37858e-24 -2.30178e-21 0 7.34526e-35 
9.1207e-21 -1.11814e-22 -1.68033e-21 3.75704e-23 -6.05425e-22 -9.09831e-21 2.03429e-22 1.64356e-34 
3.87102e-21 -2.77455e-23 -7.15937e-22 1.22054e-23 -1.49884e-22 -3.86755e-21 6.59347e-23 3.39262e-34 
9.96377e-21 -1.22702e-22 -1.8031e-21 8.20874e-23 -6.75781e-22 -9.93054e-21 4.52095e-22 -3.22823e-34 
1.83869e-21 -2.18827e-25 -4.59673e-22 6.57558e-28 -8.75306e-25 -1.83869e-21 2.63023e-27 8.79229e-35 
1.8833e-21 -2.66815e-24 -4.52363e-22 1.3992e-23 -1.11027e-23 -1.88237e-21 5.82235e-23 1.74221e-35 
2.54058e-21 -4.49114e-24 -4.09544e-22 1.42107e-23 -2.7842e-23 -2.53889e-21 8.80963e-23 2.59553e-35 
2.74444e-21 -8.95144e-24 -4.95902e-22 2.15876e-23 -4.94845e-23 -2.74139e-21 1.19338e-22 1.67802e-34 
4.39049e-21 -3.10074e-23 -8.12012e-22 1.38433e-23 -1.67508e-22 -4.38665e-21 7.47844e-23 3.95814e-35 
3.79635e-21 -2.12231e-23 -6.82752e-22 3.59106e-23 -1.17789e-22 -3.78928e-21 1.99305e-22 -3.25316e-34 
5.43225e-21 -5.19184e-23 -9.87198e-22 3.96981e-23 -2.85067e-22 -5.42039e-21 2.17969e-22 6.32181e-35 
1.90597e-21 -2.96841e-24 -6.23321e-22 7.21982e-24 -9.07602e-24 -1.90582e-21 2.20748e-23 -1.08811e-34 
2.71295e-21 -7.86559e-24 -4.47216e-22 5.05852e-24 -4.77047e-23 -2.71236e-21 3.06798e-23 1.39661e-34 
2.92973e-21 -4.02715e-24 -3.51039e-22 1.39113e-23 -3.35815e-23 -2.92724e-21 1.16003e-22 -4.18954e-34 
2.30659e-21 -4.0023e-24 -3.7669e-22 6.5095e-24 -2.45023e-23 -2.30612e-21 3.98515e-23 -3.20398e-35 
4.97402e-22 -1.57763e-25 -9.3263e-24 0 -8.41282e-24 -4.97331e-22 0 6.69792e-34 
2.59226e-21 -8.37739e-24 -4.74286e-22 -1.35938e-23 -4.57616e-23 -2.59079e-21 -7.42562e-23 -2.4014e-34 
2.55178e-21 -9.351e-24 -9.0907e-22 0 -2.6247e-23 -2.55164e-21 0 1.08704e-34 
2.57461e-21 -3.28161e-25 -6.20222e-22 -8.2619e-24 -1.36211e-24 -2.57438e-21 -3.4293e-23 -1.08615e-34 
2.02949e-21 -2.87526e-24 -4.87476e-22 -1.50781e-23 -1.19645e-23 -2.02848e-21 -6.2743e-23 -1.74221e-35 
7.32283e-21 -7.00698e-23 -1.32518e-21 -6.03298e-23 -3.86261e-22 -7.30507e-21 -3.32569e-22 8.30874e-34 
3.99109e-21 -2.82233e-23 -7.36814e-22 -1.45834e-23 -1.52735e-22 -3.98739e-21 -7.89202e-23 9.45954e-34 
4.47249e-21 -3.86992e-23 -7.99875e-22 -4.90266e-23 -2.15729e-22 -4.45891e-21 -2.73299e-22 1.21948e-33 
4.03492e-21 -2.01789e-23 -7.35955e-22 -2.54448e-23 -1.10525e-22 -4.031e-21 -1.39367e-22 -1.54792e-34 
3.06619e-21 -5.96835e-24 -4.94274e-22 -1.71507e-23 -3.69992e-23 -3.06412e-21 -1.06321e-22 7.2674e-34 
2.5786e-21 -4.46675e-24 -4.2507e-22 -4.80802e-24 -2.70934e-23 -2.5783e-21 -2.91635e-23 -1.52373e-34 
4.06154e-21 -3.7965e-23 -1.44692e-21 0 -1.06532e-22 -4.06014e-21 0 4.72873e-34 
2.18517e-21 -7.4166e-25 -1.55693e-21 0 -1.04093e-24 -2.18517e-21 0 -1.98322e-34 
2.1479e-21 -3.53718e-24 -5.22424e-22 -1.26167e-23 -1.45382e-23 -2.14723e-21 -5.18561e-23 -1.76385e-34 
8.56238e-21 -1.01882e-22 -1.56531e-21 0 -5.56125e-22 -8.5443e-21 0 -6.2848e-34 
8.99614e-21 0 -7.51476e-21 -7.51476e-21 0 -6.36123e-21 -6.36123e-21 4.64811e-33 
0 0 0 0 0 0 0 0 
0 0 0 0 0 0 0 0 
0 0 0 0 0 0 0 0 
0 0 0 0 0 0 0 0 
0 0 0 0 0 0 0 0 
0 0 0 0 0 0 0 0 
0 0 0 0 0 0 0 0 
0 0 0 0 0 0 0 0 
0 0 0 0 0 0 0 0 
0 0 0 0 0 0 0 0 
0 0 0 0 0 0 0 0 
0 0 0 0 0 0 0 0 
0 0 0 0 0 0 0 0 
0 0 0 0 0 0 0 0 
0 0 0 0 0 0 0 0 
0 0 0 0 0 0 0 0 
0 0 0 0 0 0 0 0 
0 0 0 0 0 0 0 0 
0 0 0 0 0 0 0 0 
0 0 0 0 0 0 0 0 
0 0 0 0 0 0 0 0 
0 0 0 0 0 0 0 0 
0 0 0 0 0 0 0 0 
0 0 0 0 0 0 0 0 
0 0 0 0 0 0 0 0 
0 0 0 0 0 0 0 0 
0 0 0 0 0 0 0 0 
0 0 0 0 0 0 0 0 
0 0 0 0 0 0 0 0 
0 0 0 0 0 0 0 0 
0 0 0 0 0 0 0 0 
0 0 0 0 0 0 0 0 
0 0 0 0 0 0 0 0 
0 0 0 0 0 0 0 0 
0 0 0 0 0 0 0 0 
0 0 0 0 0 0 0 0 
0 0 0 0 0 0 0 0 
0 0 0 0 0 0 0 0 
0 0 0 0 0 0 0 0 
0 0 0 0 0 0 0 0 
0 0 0 0 0 0 0 0 
0 0 0 0 0 0 0 0 
0 0 0 0 0 0 0 0 
0 0 0 0 0 0 0 0 
0 0 0 0 0 0 0 0 
0 0 0 0 0 0 0 0 
8.84566e-21 0 7.38907e-21 7.38907e-21 0 6.25483e-21 6.25483e-21 4.67824e-33 
2.55315e-20 -1.04477e-21 -1.58329e-22 -5.89604e-21 -4.45319e-21 -6.74859e-22 -2.51311e-20 -1.16131e-32 
3.01937e-20 -1.83388e-21 -6.6966e-22 -1.01695e-20 -5.34721e-21 -1.95259e-21 -2.96522e-20 -8.50886e-33 
2.45968e-20 -9.00109e-22 -1.58294e-22 -5.03409e-21 -4.32725e-21 -7.60993e-22 -2.42012e-20 -7.95055e-34 
5.03454e-20 -1.51222e-21 -1.20664e-21 -5.97841e-21 -1.21161e-20 -9.66778e-21 -4.78999e-20 -5.26661e-33 
6.92727e-20 -1.14837e-21 -6.79041e-22 -4.61795e-21 -1.65497e-20 -9.78594e-21 -6.65512e-20 -4.60076e-33 
6.509e-20 -1.14455e-21 -4.53169e-22 -4.70467e-21 -1.53194e-20 -6.06548e-21 -6.29701e-20 1.52705e-33 
4.00068e-20 -6.55181e-22 -2.39704e-22 -2.95469e-21 -8.63381e-21 -3.15876e-21 -3.89361e-20 5.54485e-33 
2.36077e-20 -7.41369e-22 -2.07522e-22 -4.07236e-21 -4.22295e-21 -1.18208e-21 -2.31968e-20 6.67763e-34 
2.56961e-20 -8.95064e-22 -2.39614e-22 -4.82089e-21 -4.68509e-21 -1.25423e-21 -2.52343e-20 -1.80253e-33 
2.46654e-20 -7.92798e-22 -3.49689e-22 -4.2145e-21 -4.54481e-21 -2.00463e-21 -2.41601e-20 1.08606e-33 
2.77235e-20 -9.24368e-22 -4.6676e-22 -4.71912e-21 -5.30421e-21 -2.67836e-21 -2.70792e-20 1.44148e-34 
6.84907e-20 -1.58603e-21 -1.39814e-21 -7.88138e-21 -1.33122e-20 -1.17352e-20 -6.61517e-20 2.1779e-32 
2.67218e-20 -1.00292e-21 -5.79696e-22 -5.01242e-21 -5.20938e-21 -3.01107e-21 -2.60356e-20 -3.01742e-33 
3.45643e-20 -7.52838e-22 -2.62794e-22 -3.70698e-21 -6.86258e-21 -2.39553e-21 -3.37914e-20 7.42315e-33 
3.15051e-20 -8.71705e-22 -4.70278e-22 -4.10747e-21 -6.49984e-21 -3.50661e-21 -3.06272e-20 -6.08766e-34 
4.72839e-20 -7.94667e-22 -3.76768e-22 -3.24494e-21 -1.11763e-20 -5.29893e-21 -4.56375e-20 -1.03636e-32 
3.73021e-20 -5.80578e-22 -2.55279e-22 -2.60516e-21 -8.07712e-21 -3.5515e-21 -3.62436e-20 -8.59154e-33 
3.66968e-20 -1.1296e-21 -5.0255e-22 -5.1286e-21 -7.85758e-21 -3.49576e-21 -3.56748e-20 -2.18427e-35 
3.32496e-20 -9.06648e-22 -6.1621e-22 -4.09174e-21 -7.11648e-21 -4.83677e-21 -3.21169e-20 2.27577e-33 
4.26979e-20 -9.93221e-22 -9.49573e-22 -4.57358e-21 -8.88034e-21 -8.49009e-21 -4.08922e-20 8.88122e-33 
3.5847e-20 -9.49463e-22 -8.1188e-22 -4.072e-21 -7.99079e-21 -6.83287e-21 -3.42704e-20 1.23328e-33 
3.7668e-20 -1.13471e-21 -6.75319e-22 -4.90386e-21 -8.41628e-21 -5.00891e-21 -3.63724e-20 4.891e-34 
5.00898e-20 -8.49859e-22 -4.09476e-22 -3.505e-21 -1.17279e-20 -5.65071e-21 -4.83685e-20 4.86774e-33 
4.61366e-20 -1.44519e-21 -9.00887e-22 -5.94986e-21 -1.07737e-20 -6.71599e-21 -4.43554e-20 6.50772e-33 
3.82533e-20 -1.05142e-21 -9.43637e-22 -4.28618e-21 -8.9121e-21 -7.99848e-21 -3.63306e-20 3.87709e-33 
3.45643e-20 -9.95794e-22 -4.59992e-22 -5.41051e-21 -6.23465e-21 -2.88e-21 -3.38751e-20 8.24415e-33 
6.95011e-20 -1.53725e-21 -9.33852e-22 -8.17153e-21 -1.2769e-20 -7.75698e-21 -6.78763e-20 -2.6083e-34 
2.99913e-20 -6.61636e-22 -1.62971e-22 -3.37946e-21 -5.75591e-21 -1.41777e-21 -2.93996e-20 7.64886e-34 