ITEM: TIMESTEP
200
ITEM: NUMBER OF SURFS
6916
ITEM: BOX BOUNDS oo rr rr
-20 20
-20 20
-20 20
ITEM: SURFS f_save[1] f_save[2] f_save[3] f_save[4] f_save[5] f_save[6] f_save[7] f_save[8] 
2.4555e-18 -1.84239e-19 0 0 -2.4555e-18 0 0 0 
1.8502e-19 0 0 -5.5525e-19 0 0 -1.8502e-19 0 
1.84193e-22 1.38192e-23 0 0 1.84193e-22 0 0 0 
1.43451e-18 -3.49662e-20 0 0 -1.43451e-18 0 0 1.32642e-30 
1.34308e-18 -1.67886e-21 0 0 -1.34308e-18 0 0 0 
1.34621e-18 -1.68277e-21 0 0 -1.34621e-18 0 0 0 
1.38001e-18 -1.72502e-21 0 0 -1.38001e-18 0 0 0 
1.40444e-18 -3.42332e-20 0 0 -1.40444e-18 0 0 1.294e-30 
1.40471e-18 -3.33618e-20 0 0 -1.40471e-18 0 0 0 
1.46501e-18 -3.4794e-20 0 0 -1.46501e-18 0 0 0 
1.53638e-18 -3.64892e-20 0 0 -1.53638e-18 0 0 0 
1.52036e-18 -3.61086e-20 0 0 -1.52036e-18 0 0 0 
1.49187e-18 -3.63643e-20 0 0 -1.49187e-18 0 0 0 
1.48037e-18 -3.51587e-20 0 0 -1.48037e-18 0 0 0 
1.43773e-18 -3.41461e-20 0 0 -1.43773e-18 0 0 0 
1.45354e-18 -3.54302e-20 0 0 -1.45354e-18 0 0 0 
1.43828e-18 -3.5058e-20 0 0 -1.43828e-18 0 0 1.32823e-30 
1.42121e-18 -3.37539e-20 0 0 -1.42121e-18 0 0 1.31774e-30 
1.4306e-18 -3.39769e-20 0 0 -1.4306e-18 0 0 0 
1.40134e-18 -3.41576e-20 0 0 -1.40134e-18 0 0 1.29134e-30 
1.40329e-18 -3.33282e-20 0 0 -1.40329e-18 0 0 0 
1.47798e-18 -3.51021e-20 0 0 -1.47798e-18 0 0 0 
1.44622e-18 -3.52517e-20 0 0 -1.44622e-18 0 0 0 
1.46452e-18 -3.47826e-20 0 0 -1.46452e-18 0 0 0 
1.49208e-18 -3.54368e-20 0 0 -1.49208e-18 0 0 0 
1.46873e-18 -3.48823e-20 0 0 -1.46873e-18 0 0 0 
1.64558e-18 -2.05698e-21 0 0 -1.64558e-18 0 0 0 
1.44611e-18 -3.43451e-20 0 0 -1.44611e-18 0 0 0 
1.40778e-18 -3.34348e-20 0 0 -1.40778e-18 0 0 0 
1.60815e-18 -2.01019e-21 0 0 -1.60815e-18 0 0 0 
1.37506e-18 -3.26577e-20 0 0 -1.37506e-18 0 0 0 
1.41166e-18 -3.35269e-20 0 0 -1.41166e-18 0 0 0 
1.58929e-18 -1.98662e-21 0 0 -1.58929e-18 0 0 0 
1.48945e-18 -3.63053e-20 0 0 -1.48945e-18 0 0 1.37139e-30 
1.40953e-18 -3.34764e-20 0 0 -1.40953e-18 0 0 0 
1.4654e-18 -1.83176e-21 0 0 -1.4654e-18 0 0 0 
1.46041e-18 -3.55974e-20 0 0 -1.46041e-18 0 0 1.34336e-30 
1.40948e-18 -3.34752e-20 0 0 -1.40948e-18 0 0 0 
1.38827e-18 -1.73535e-21 0 0 -1.38827e-18 0 0 0 
1.39262e-18 -3.30749e-20 0 0 -1.39262e-18 0 0 0 
1.39659e-18 -3.4042e-20 0 0 -1.39659e-18 0 0 0 
1.79826e-18 -2.24784e-21 0 0 -1.79826e-18 0 0 0 
1.3883e-18 -3.29722e-20 0 0 -1.3883e-18 0 0 0 
1.43788e-18 -3.50483e-20 0 0 -1.43788e-18 0 0 0 
1.43558e-18 -1.79448e-21 0 0 -1.43558e-18 0 0 0 
1.49019e-18 -3.53923e-20 0 0 -1.49019e-18 0 0 0 
1.41861e-18 -3.3692e-20 0 0 -1.41861e-18 0 0 0 
1.66544e-18 -2.08181e-21 0 0 -1.66544e-18 0 0 0 
1.2753e-18 -1.59413e-21 0 0 -1.2753e-18 0 0 0 
1.39145e-18 -1.73932e-21 0 0 -1.39145e-18 0 0 0 
1.43592e-18 -3.41033e-20 0 0 -1.43592e-18 0 0 1.32658e-30 
1.44412e-18 -3.4298e-20 0 0 -1.44412e-18 0 0 0 
1.4184e-18 -3.3687e-20 0 0 -1.4184e-18 0 0 1.30552e-30 
1.55476e-18 -1.94345e-21 0 0 -1.55476e-18 0 0 0 
1.43283e-18 -3.40298e-20 0 0 -1.43283e-18 0 0 0 
1.52936e-18 -3.63224e-20 0 0 -1.52936e-18 0 0 0 
1.55113e-18 -3.68394e-20 0 0 -1.55113e-18 0 0 0 
1.57355e-18 -1.96693e-21 0 0 -1.57355e-18 0 0 0 
1.50998e-18 -3.58621e-20 0 0 -1.50998e-18 0 0 0 
1.49347e-18 -3.54698e-20 0 0 -1.49347e-18 0 0 0 
1.44576e-18 -3.43367e-20 0 0 -1.44576e-18 0 0 0 
1.76289e-18 -2.20363e-21 0 0 -1.76289e-18 0 0 0 
1.4231e-18 -3.37987e-20 0 0 -1.4231e-18 0 0 0 
1.36592e-18 -3.32944e-20 0 0 -1.36592e-18 0 0 1.26346e-30 
1.57731e-18 -1.97165e-21 0 0 -1.57731e-18 0 0 0 
1.35391e-18 -3.21554e-20 0 0 -1.35391e-18 0 0 0 
1.46184e-18 -3.47188e-20 0 0 -1.46184e-18 0 0 0 
1.51552e-18 -1.89441e-21 0 0 -1.51552e-18 0 0 0 
1.41153e-18 -3.35239e-20 0 0 -1.41153e-18 0 0 0 
1.41706e-18 -3.36552e-20 0 0 -1.41706e-18 0 0 0 
1.54837e-18 -1.93546e-21 0 0 -1.54837e-18 0 0 0 
1.44679e-18 -3.43613e-20 0 0 -1.44679e-18 0 0 0 
1.38632e-18 -3.29252e-20 0 0 -1.38632e-18 0 0 0 
1.4018e-18 -1.75226e-21 0 0 -1.4018e-18 0 0 0 
1.64681e-18 -2.05852e-21 0 0 -1.64681e-18 0 0 0 
1.45252e-18 -3.44974e-20 0 0 -1.45252e-18 0 0 0 
1.4852e-18 -3.52735e-20 0 0 -1.4852e-18 0 0 0 
1.42134e-18 -1.77668e-21 0 0 -1.42134e-18 0 0 0 
1.40836e-18 -3.34484e-20 0 0 -1.40836e-18 0 0 0 
1.403e-18 -3.33211e-20 0 0 -1.403e-18 0 0 0 
1.49581e-18 -3.55255e-20 0 0 -1.49581e-18 0 0 0 
1.47197e-18 -3.49593e-20 0 0 -1.47197e-18 0 0 0 
1.50111e-18 -3.56515e-20 0 0 -1.50111e-18 0 0 0 
1.46295e-18 -3.56595e-20 0 0 -1.46295e-18 0 0 0 
1.44649e-18 -3.61624e-20 0 0 -1.44649e-18 0 0 0 
1.45267e-18 -3.63168e-20 0 0 -1.45267e-18 0 0 0 
1.39311e-18 -3.48278e-20 0 0 -1.39311e-18 0 0 0 
1.38136e-18 -3.45342e-20 0 0 -1.38136e-18 0 0 0 
1.43643e-18 -1.23533e-18 0 0 -1.43643e-18 0 0 1.32497e-30 
1.44265e-18 -6.85259e-19 0 0 -1.44265e-18 0 0 1.32946e-30 
1.43881e-18 -6.83434e-19 0 0 -1.43881e-18 0 0 0 
1.43128e-18 -6.79859e-19 0 0 -1.43128e-18 0 0 0 
1.43316e-18 -6.98664e-19 0 0 -1.43316e-18 0 0 0 
1.44504e-18 -1.24273e-18 0 0 -1.44504e-18 0 0 1.33228e-30 
1.44566e-18 -6.86688e-19 0 0 -1.44566e-18 0 0 0 
1.43819e-18 -6.8314e-19 0 0 -1.43819e-18 0 0 0 
1.44777e-18 -6.87693e-19 0 0 -1.44777e-18 0 0 0 
1.44091e-18 -7.02443e-19 0 0 -1.44091e-18 0 0 0 
1.45726e-18 -3.64316e-20 0 0 -1.45726e-18 0 0 1.33811e-30 
1.37942e-18 -3.44854e-20 0 0 -1.37942e-18 0 0 0 
1.52394e-18 -3.80985e-20 0 0 -1.52394e-18 0 0 1.40352e-30 
3.84645e-21 0 0 -2.25017e-20 0 0 -3.84645e-21 0 
3.43294e-20 4.29118e-23 0 0 3.43294e-20 0 0 0 
2.66606e-20 6.3319e-22 0 0 2.66606e-20 0 0 0 
0 0 0 0 0 0 0 0 
2.33179e-20 5.53799e-22 0 0 2.33179e-20 0 0 0 
4.028e-20 9.56649e-22 0 0 4.028e-20 0 0 0 
1.37793e-20 3.27258e-22 0 0 1.37793e-20 0 0 0 
4.68969e-20 1.11381e-21 0 0 4.68969e-20 0 0 0 
9.62457e-21 2.28583e-22 0 0 9.62457e-21 0 0 0 
4.71092e-20 1.11884e-21 0 0 4.71092e-20 0 0 0 
5.07883e-20 6.18983e-22 0 0 5.07883e-20 0 0 0 
7.88382e-21 1.87241e-22 0 0 7.88382e-21 0 0 7.19687e-33 
1.84632e-20 4.38503e-22 0 0 1.84632e-20 0 0 0 
2.4993e-20 5.93583e-22 0 0 2.4993e-20 0 0 0 
5.50277e-20 1.30691e-21 0 0 5.50277e-20 0 0 0 
1.84112e-20 4.37265e-22 0 0 1.84112e-20 0 0 0 
2.8989e-20 6.88488e-22 0 0 2.8989e-20 0 0 0 
3.98276e-20 9.45906e-22 0 0 3.98276e-20 0 0 0 
2.57029e-20 3.21287e-23 0 0 2.57029e-20 0 0 0 
3.03309e-20 7.20361e-22 0 0 3.03309e-20 0 0 0 
2.22066e-20 5.27406e-22 0 0 2.22066e-20 0 0 0 
2.50978e-20 3.13722e-23 0 0 2.50978e-20 0 0 0 
1.78709e-20 4.24434e-22 0 0 1.78709e-20 0 0 0 
2.48181e-20 5.8943e-22 0 0 2.48181e-20 0 0 0 
1.75542e-20 2.19427e-23 0 0 1.75542e-20 0 0 0 
1.21408e-20 2.88344e-22 0 0 1.21408e-20 0 0 0 
1.06377e-20 2.52645e-22 0 0 1.06377e-20 0 0 0 
2.53453e-20 3.16817e-23 0 0 2.53453e-20 0 0 0 
6.65605e-21 8.32009e-24 0 0 6.65605e-21 0 0 0 
1.56208e-20 3.70994e-22 0 0 1.56208e-20 0 0 0 
1.22715e-20 2.91448e-22 0 0 1.22715e-20 0 0 0 
2.60294e-20 6.18199e-22 0 0 2.60294e-20 0 0 0 
2.45263e-20 5.82499e-22 0 0 2.45263e-20 0 0 0 
0 0 0 0 0 0 0 0 
1.41207e-20 3.35366e-22 0 0 1.41207e-20 0 0 0 
1.51333e-20 3.59416e-22 0 0 1.51333e-20 0 0 0 
7.41808e-21 9.27261e-24 0 0 7.41808e-21 0 0 0 
4.12076e-20 5.15096e-23 0 0 4.12076e-20 0 0 0 
2.24466e-20 5.33107e-22 0 0 2.24466e-20 0 0 0 
1.7179e-20 4.08001e-22 0 0 1.7179e-20 0 0 0 
2.45957e-20 5.84149e-22 0 0 2.45957e-20 0 0 0 
0 0 0 0 0 0 0 0 
1.69455e-20 4.02456e-22 0 0 1.69455e-20 0 0 0 
1.75888e-20 4.17736e-22 0 0 1.75888e-20 0 0 0 
4.5368e-20 5.67101e-23 0 0 4.5368e-20 0 0 0 
4.47368e-20 1.0625e-21 0 0 4.47368e-20 0 0 0 
2.66579e-20 6.33124e-22 0 0 2.66579e-20 0 0 0 
3.60762e-20 8.5681e-22 0 0 3.60762e-20 0 0 0 
9.90175e-21 1.23772e-23 0 0 9.90175e-21 0 0 0 
6.92911e-21 1.68898e-22 0 0 6.92911e-21 0 0 0 
2.38692e-20 2.98366e-23 0 0 2.38692e-20 0 0 0 
2.78798e-20 6.7957e-22 0 0 2.78798e-20 0 0 2.55803e-32 
4.25076e-20 1.00956e-21 0 0 4.25076e-20 0 0 0 
3.84838e-20 9.38044e-22 0 0 3.84838e-20 0 0 0 
4.69946e-20 1.14549e-21 0 0 4.69946e-20 0 0 4.40001e-32 
2.25724e-20 5.36097e-22 0 0 2.25724e-20 0 0 0 
0 0 0 0 0 0 0 0 
1.01226e-20 2.4674e-22 0 0 1.01226e-20 0 0 0 
0 0 0 0 0 0 0 0 
9.26798e-21 1.1585e-23 0 0 9.26798e-21 0 0 0 
3.72132e-20 4.65166e-23 0 0 3.72132e-20 0 0 0 
6.49393e-20 8.11743e-23 0 0 6.49393e-20 0 0 0 
0 0 0 0 0 0 0 0 
6.77102e-21 8.46383e-24 0 0 6.77102e-21 0 0 0 
2.1052e-20 5.13144e-22 0 0 2.1052e-20 0 0 0 
2.99802e-20 7.12033e-22 0 0 2.99802e-20 0 0 0 
3.78461e-20 4.73078e-23 0 0 3.78461e-20 0 0 0 
2.56286e-20 6.24697e-22 0 0 2.56286e-20 0 0 0 
3.19277e-20 7.58285e-22 0 0 3.19277e-20 0 0 0 
4.0687e-20 5.08589e-23 0 0 4.0687e-20 0 0 0 
2.73855e-20 6.67523e-22 0 0 2.73855e-20 0 0 0 
1.28804e-20 3.0591e-22 0 0 1.28804e-20 0 0 1.16062e-32 
1.1354e-20 2.76754e-22 0 0 1.1354e-20 0 0 0 
1.09328e-20 2.59655e-22 0 0 1.09328e-20 0 0 1.00097e-32 
1.73553e-20 4.12189e-22 0 0 1.73553e-20 0 0 0 
5.21334e-20 1.23817e-21 0 0 5.21334e-20 0 0 0 
4.0113e-20 9.52686e-22 0 0 4.0113e-20 0 0 0 
1.29812e-20 3.08304e-22 0 0 1.29812e-20 0 0 0 
1.34889e-20 3.20364e-22 0 0 1.34889e-20 0 0 1.1961e-32 
2.81354e-20 6.85799e-22 0 0 2.81354e-20 0 0 2.60248e-32 
1.09148e-20 2.66049e-22 0 0 1.09148e-20 0 0 0 
1.17774e-19 7.36088e-23 0 0 1.17774e-19 0 0 0 
2.9269e-20 3.56716e-22 0 0 2.9269e-20 0 0 0 
3.46503e-19 -3.63825e-19 -4.45593e-19 -4.45593e-19 -1.73251e-19 -2.12189e-19 -2.12189e-19 -1.16507e-31 
3.56195e-21 0 0 -5.26736e-19 0 0 -3.56195e-21 0 
2.42067e-21 0 4.90394e-19 -4.90394e-19 0 1.71167e-21 -1.71167e-21 -1.25398e-34 
3.47003e-19 -3.64351e-19 4.46237e-19 4.46237e-19 -1.73502e-19 2.12495e-19 2.12495e-19 -1.17121e-31 
3.58073e-21 0 0 5.29513e-19 0 0 3.58073e-21 0 
2.94401e-21 0 -2.68543e-19 2.68543e-19 0 -2.08173e-21 2.08173e-21 1.86152e-34 
4.1404e-21 0 -2.42214e-20 0 0 -4.1404e-21 0 0 
4.11235e-21 0 2.40572e-20 0 0 4.11235e-21 0 0 
3.75188e-21 0 0 -2.13857e-20 0 0 -3.75188e-21 0 
3.86157e-21 0 0 2.20109e-20 0 0 3.86157e-21 0 
3.89783e-21 0 0 -2.22177e-20 0 0 -3.89783e-21 0 
3.91326e-21 0 0 2.23056e-20 0 0 3.91326e-21 0 
4.01174e-21 0 0 2.28669e-20 0 0 4.01174e-21 0 
3.93378e-21 0 0 -2.24226e-20 0 0 -3.93378e-21 0 
3.74144e-21 0 0 -2.13262e-20 0 0 -3.74144e-21 0 
3.71027e-21 0 0 2.11485e-20 0 0 3.71027e-21 0 
3.88125e-21 0 0 -2.21231e-20 0 0 -3.88125e-21 0 
3.85659e-21 0 0 2.19826e-20 0 0 3.85659e-21 0 
4.1225e-21 0 -2.34983e-20 0 0 -4.1225e-21 0 0 
3.93153e-21 0 2.24097e-20 0 0 3.93153e-21 0 0 
4.21851e-21 0 0 -2.40455e-20 0 0 -4.21851e-21 0 
4.32542e-21 0 0 2.46549e-20 0 0 4.32542e-21 0 
4.19101e-21 0 -2.38887e-20 0 0 -4.19101e-21 0 0 
4.20446e-21 0 2.39654e-20 0 0 4.20446e-21 0 0 
3.9436e-21 0 -2.24785e-20 0 0 -3.9436e-21 0 0 
4.07322e-21 0 2.32174e-20 0 0 4.07322e-21 0 0 
4.18219e-21 0 2.44658e-20 0 0 4.18219e-21 0 0 
4.17738e-21 0 -2.44377e-20 0 0 -4.17738e-21 0 0 
4.01234e-21 0 2.34722e-20 0 0 4.01234e-21 0 0 
4.02317e-21 0 -2.35355e-20 0 0 -4.02317e-21 0 0 
4.00084e-21 0 -2.28048e-20 0 0 -4.00084e-21 0 0 
3.82265e-21 0 2.17891e-20 0 0 3.82265e-21 0 0 
3.79095e-21 0 2.21771e-20 0 0 3.79095e-21 0 0 
3.8514e-21 0 -1.12653e-20 0 0 -3.8514e-21 0 0 
3.76567e-21 0 0 1.10146e-20 0 0 3.76567e-21 0 
4.83599e-21 0 0 -2.75652e-20 0 0 -4.83599e-21 0 
4.64009e-21 0 0 2.64485e-20 0 0 4.64009e-21 0 
4.07556e-21 0 0 2.3842e-20 0 0 4.07556e-21 0 
3.98723e-21 0 0 -2.33253e-20 0 0 -3.98723e-21 0 
4.01076e-21 0 -2.28613e-20 0 0 -4.01076e-21 0 0 
4.00183e-21 0 2.28104e-20 0 0 4.00183e-21 0 0 
4.37383e-21 0 -2.49308e-20 0 0 -4.37383e-21 0 0 
4.23474e-21 0 2.4138e-20 0 0 4.23474e-21 0 0 
4.03842e-21 0 0 2.3019e-20 0 0 4.03842e-21 0 
4.09049e-21 0 0 -2.33158e-20 0 0 -4.09049e-21 0 
4.29564e-21 0 -2.44851e-20 0 0 -4.29564e-21 0 0 
4.2325e-21 0 2.41252e-20 0 0 4.2325e-21 0 0 
4.08408e-21 0 0 2.32792e-20 0 0 4.08408e-21 0 
4.14998e-21 0 0 -2.36549e-20 0 0 -4.14998e-21 0 
3.98216e-21 0 -2.26983e-20 0 0 -3.98216e-21 0 0 
3.96123e-21 0 2.2579e-20 0 0 3.96123e-21 0 0 
4.38013e-21 0 0 2.49667e-20 0 0 4.38013e-21 0 
4.51378e-21 0 0 -2.57285e-20 0 0 -4.51378e-21 0 
4.21427e-21 0 2.40213e-20 0 0 4.21427e-21 0 0 
4.14851e-21 0 -2.36465e-20 0 0 -4.14851e-21 0 0 
3.93493e-21 0 2.24291e-20 0 0 3.93493e-21 0 0 
3.8696e-21 0 -2.20567e-20 0 0 -3.8696e-21 0 0 
4.29009e-21 0 0 -2.44535e-20 0 0 -4.29009e-21 0 
4.30864e-21 0 0 2.45593e-20 0 0 4.30864e-21 0 
4.20652e-21 0 0 2.39772e-20 0 0 4.20652e-21 0 
4.12771e-21 0 0 -2.3528e-20 0 0 -4.12771e-21 0 
4.80386e-21 0 0 2.7382e-20 0 0 4.80386e-21 0 
4.26867e-21 0 0 -2.43314e-20 0 0 -4.26867e-21 0 
4.34072e-21 0 -2.47421e-20 0 0 -4.34072e-21 0 0 
4.2079e-21 0 2.3985e-20 0 0 4.2079e-21 0 0 
4.13249e-21 0 -2.35552e-20 0 0 -4.13249e-21 0 0 
4.04056e-21 0 2.30312e-20 0 0 4.04056e-21 0 0 
3.74172e-21 0 2.18891e-20 0 0 3.74172e-21 0 0 
3.70107e-21 0 0 -2.16512e-20 0 0 -3.70107e-21 0 
3.97312e-21 0 -2.32428e-20 0 0 -3.97312e-21 0 0 
3.97961e-21 0 2.32807e-20 0 0 3.97961e-21 0 0 
4.2785e-21 0 2.50292e-20 0 0 4.2785e-21 0 0 
4.22005e-21 0 -2.46873e-20 0 0 -4.22005e-21 0 0 
3.9926e-21 0 0 -2.33567e-20 0 0 -3.9926e-21 0 
4.06766e-21 0 0 2.37958e-20 0 0 4.06766e-21 0 
4.01602e-21 0 0 2.34937e-20 0 0 4.01602e-21 0 
3.93057e-21 0 0 -2.29939e-20 0 0 -3.93057e-21 0 
4.31683e-21 0 -2.46059e-20 0 0 -4.31683e-21 0 0 
4.67197e-21 0 2.66302e-20 0 0 4.67197e-21 0 0 
4.13824e-21 0 0 -2.42087e-20 0 0 -4.13824e-21 0 
4.18692e-21 0 0 2.44935e-20 0 0 4.18692e-21 0 
3.73493e-21 0 -1.09247e-20 0 0 -3.73493e-21 0 0 
4.06955e-21 0 -2.38069e-20 0 0 -4.06955e-21 0 0 
4.08797e-21 0 2.39146e-20 0 0 4.08797e-21 0 0 
3.9664e-21 0 -2.32034e-20 0 0 -3.9664e-21 0 0 
3.95992e-21 0 2.31655e-20 0 0 3.95992e-21 0 0 
4.07407e-21 0 -2.32222e-20 0 0 -4.07407e-21 0 0 
4.2189e-21 0 2.40477e-20 0 0 4.2189e-21 0 0 
4.08407e-21 0 0 -2.38918e-20 0 0 -4.08407e-21 0 
4.04435e-21 0 0 2.36594e-20 0 0 4.04435e-21 0 
4.48418e-21 0 2.55598e-20 0 0 4.48418e-21 0 0 
4.39755e-21 0 -2.5066e-20 0 0 -4.39755e-21 0 0 
3.93732e-21 0 0 2.24427e-20 0 0 3.93732e-21 0 
3.92314e-21 0 0 -2.23619e-20 0 0 -3.92314e-21 0 
3.7286e-21 0 0 2.18123e-20 0 0 3.7286e-21 0 
3.78463e-21 0 1.107e-20 0 0 3.78463e-21 0 0 
4.30738e-21 0 -2.4552e-20 0 0 -4.30738e-21 0 0 
4.16947e-21 0 2.3766e-20 0 0 4.16947e-21 0 0 
3.96548e-21 0 2.26033e-20 0 0 3.96548e-21 0 0 
4.01687e-21 0 -2.28961e-20 0 0 -4.01687e-21 0 0 
3.85671e-21 0 2.19832e-20 0 0 3.85671e-21 0 0 
3.97113e-21 0 -2.26354e-20 0 0 -3.97113e-21 0 0 
3.9732e-21 0 0 -2.26472e-20 0 0 -3.9732e-21 0 
3.95711e-21 0 0 2.25555e-20 0 0 3.95711e-21 0 
4.55655e-21 0 2.59723e-20 0 0 4.55655e-21 0 0 
4.42516e-21 0 -2.52234e-20 0 0 -4.42516e-21 0 0 
3.97699e-21 0 0 -2.26688e-20 0 0 -3.97699e-21 0 
3.95865e-21 0 0 2.25643e-20 0 0 3.95865e-21 0 
3.89316e-21 0 2.2191e-20 0 0 3.89316e-21 0 0 
3.94398e-21 0 -2.24807e-20 0 0 -3.94398e-21 0 0 
4.1936e-21 0 -2.39035e-20 0 0 -4.1936e-21 0 0 
4.00882e-21 0 2.28503e-20 0 0 4.00882e-21 0 0 
3.9418e-21 0 0 -2.24683e-20 0 0 -3.9418e-21 0 
3.89988e-21 0 0 2.22293e-20 0 0 3.89988e-21 0 
4.04757e-21 0 0 -2.30712e-20 0 0 -4.04757e-21 0 
4.08214e-21 0 0 2.32682e-20 0 0 4.08214e-21 0 
3.77546e-21 0 0 2.15201e-20 0 0 3.77546e-21 0 
3.84478e-21 0 0 -2.19152e-20 0 0 -3.84478e-21 0 
3.86675e-21 0 -2.20405e-20 0 0 -3.86675e-21 0 0 
3.87765e-21 0 2.21026e-20 0 0 3.87765e-21 0 0 
3.67947e-21 0 0 2.0973e-20 0 0 3.67947e-21 0 
3.7815e-21 0 0 -2.15546e-20 0 0 -3.7815e-21 0 
4.01207e-21 0 0 -2.28688e-20 0 0 -4.01207e-21 0 
4.22389e-21 0 0 2.40762e-20 0 0 4.22389e-21 0 
4.06357e-21 0 2.31624e-20 0 0 4.06357e-21 0 0 
4.03134e-21 0 -2.29786e-20 0 0 -4.03134e-21 0 0 
3.92687e-21 0 -2.23832e-20 0 0 -3.92687e-21 0 0 
3.91682e-21 0 2.23259e-20 0 0 3.91682e-21 0 0 
3.97236e-21 0 0 2.26425e-20 0 0 3.97236e-21 0 
3.97348e-21 0 0 -2.26488e-20 0 0 -3.97348e-21 0 
4.08414e-21 0 2.32796e-20 0 0 4.08414e-21 0 0 
4.20865e-21 0 -2.39893e-20 0 0 -4.20865e-21 0 0 
4.00453e-21 0 0 2.28258e-20 0 0 4.00453e-21 0 
3.99738e-21 0 0 -2.27851e-20 0 0 -3.99738e-21 0 
4.37257e-21 -5.92642e-24 0 -3.11546e-21 -8.31776e-24 0 -4.37256e-21 -1.03899e-34 
1.16222e-20 -1.42481e-22 -4.78749e-23 -2.1412e-21 -7.71476e-22 -2.59223e-22 -1.15937e-20 1.79233e-34 
7.43708e-21 -5.33053e-23 -2.34493e-23 -1.37547e-21 -2.8796e-22 -1.26675e-22 -7.43042e-21 4.58428e-34 
1.3426e-20 -1.65338e-22 -1.10611e-22 -2.42963e-21 -9.106e-22 -6.09188e-22 -1.33812e-20 -1.27616e-33 
5.10853e-21 -6.07976e-25 -1.82692e-27 -1.27713e-21 -2.4319e-24 -7.3077e-27 -5.10853e-21 -1.7863e-33 
5.06849e-21 -7.18074e-24 -3.76565e-23 -1.21744e-21 -2.98804e-23 -1.56696e-22 -5.06598e-21 -1.20212e-34 
4.84286e-21 -8.56104e-24 -2.70884e-23 -7.80676e-22 -5.30726e-23 -1.6793e-22 -4.83966e-21 -1.67898e-34 
4.77997e-21 -1.55907e-23 -3.7599e-23 -8.63709e-22 -8.61869e-23 -2.07851e-22 -4.77467e-21 1.63028e-34 
7.77293e-21 -5.48955e-23 -2.45082e-23 -1.43759e-21 -2.96557e-22 -1.32398e-22 -7.76614e-21 8.2909e-34 
5.87629e-21 -3.28509e-23 -5.55854e-23 -1.05682e-21 -1.82323e-22 -3.085e-22 -5.86535e-21 -1.44969e-33 
7.81364e-21 -7.46784e-23 -5.7101e-23 -1.41997e-21 -4.10035e-22 -3.13523e-22 -7.79658e-21 4.6925e-34 
3.79651e-21 -5.91279e-24 -1.43812e-23 -1.24159e-21 -1.80786e-23 -4.39709e-23 -3.79621e-21 -3.60677e-34 
5.62922e-21 -1.63207e-23 -1.04962e-23 -9.27949e-22 -9.89845e-23 -6.3659e-23 -5.62799e-21 2.19014e-34 
5.89083e-21 -8.09744e-24 -2.79715e-23 -7.05838e-22 -6.75227e-23 -2.33248e-22 -5.88582e-21 -6.6247e-34 
3.76694e-21 -6.53623e-24 -1.06308e-23 -6.15179e-22 -4.00151e-23 -6.50823e-23 -3.76616e-21 1.47383e-34 
5.39995e-21 -1.71273e-24 0 -1.01249e-22 -9.13322e-23 0 -5.39917e-21 8.34449e-34 
5.46381e-21 -1.76574e-23 2.86521e-23 -9.99671e-22 -9.64536e-23 1.56513e-22 -5.46072e-21 -1.13423e-33 
4.82568e-21 -1.76837e-23 0 -1.71915e-21 -4.9636e-23 0 -4.82543e-21 2.93942e-34 
5.558e-21 -7.08425e-25 1.78356e-23 -1.33892e-21 -2.94049e-24 7.40309e-23 -5.5575e-21 7.16965e-34 
4.85442e-21 -6.87747e-24 3.60661e-23 -1.16602e-21 -2.86184e-23 1.50078e-22 -4.85202e-21 -1.10195e-34 
9.0251e-21 -8.63583e-23 7.43541e-23 -1.63323e-21 -4.76051e-22 4.09878e-22 -9.00322e-21 5.30836e-34 
6.39878e-21 -4.52494e-23 2.3381e-23 -1.18131e-21 -2.44874e-22 1.2653e-22 -6.39285e-21 -3.97357e-34 
7.48462e-21 -6.47624e-23 8.20452e-23 -1.33858e-21 -3.61018e-22 4.57361e-22 -7.46191e-21 1.17762e-33 
5.35801e-21 -2.67958e-23 3.37884e-23 -9.7728e-22 -1.46767e-22 1.85067e-22 -5.3528e-21 -1.74714e-34 
5.73186e-21 -1.11571e-23 3.2061e-23 -9.23984e-22 -6.91655e-23 1.98754e-22 -5.72799e-21 8.58137e-34 
4.73948e-21 -8.20989e-24 8.83715e-24 -7.81279e-22 -4.97978e-23 5.36025e-23 -4.73891e-21 -8.76142e-35 
6.00629e-21 -5.61435e-23 0 -2.13974e-21 -1.57542e-22 0 -6.00423e-21 1.46928e-33 
4.67327e-21 -1.58614e-24 0 -3.32971e-21 -2.22616e-24 0 -4.67327e-21 4.98377e-34 
4.8685e-21 -8.01748e-24 2.85973e-23 -1.18414e-21 -3.29528e-23 1.17539e-22 -4.86697e-21 4.97212e-34 
1.11151e-20 -1.32256e-22 0 -2.03198e-21 -7.21925e-22 0 -1.10916e-20 -8.83729e-34 
5.50947e-21 -7.46733e-24 3.9255e-21 0 -1.04804e-23 5.50946e-21 0 -4.50228e-34 
1.22953e-20 -1.50732e-22 2.2652e-21 -5.06475e-23 -8.16155e-22 1.22651e-20 -2.74236e-22 1.72716e-34 
6.30324e-21 -4.51785e-23 1.16577e-21 -1.98743e-23 -2.44058e-22 6.2976e-21 -1.07362e-22 -6.40498e-34 
1.44985e-20 -1.78547e-22 2.62373e-21 -1.19447e-22 -9.83344e-22 1.44501e-20 -6.57853e-22 -5.46925e-34 
3.87096e-21 -4.6069e-25 9.67739e-22 -1.38434e-27 -1.84276e-24 3.87096e-21 -5.53736e-27 3.3463e-34 
5.24e-21 -7.42374e-24 1.25863e-21 -3.89308e-23 -3.08916e-23 5.23741e-21 -1.61998e-22 3.18062e-34 
4.0872e-21 -7.2252e-24 6.58862e-22 -2.28617e-23 -4.47913e-23 4.08449e-21 -1.41727e-22 -1.15663e-34 
6.042e-21 -1.9707e-23 1.09175e-21 -4.75259e-23 -1.08942e-22 6.0353e-21 -2.62728e-22 -4.0258e-34 
6.57646e-21 -4.64456e-23 1.2163e-21 -2.07358e-23 -2.50909e-22 6.57072e-21 -1.12019e-22 6.27507e-34 
8.03868e-21 -4.49395e-23 1.44571e-21 -7.604e-23 -2.49415e-22 8.02372e-21 -4.22023e-22 -1.67349e-33 
8.59477e-21 -8.21439e-23 1.56192e-21 -6.28093e-23 -4.51025e-22 8.57599e-21 -3.44866e-22 2.87498e-34 
3.71858e-21 -5.79141e-24 1.21611e-21 -1.40859e-23 -1.77074e-23 3.71828e-21 -4.30683e-23 2.41064e-34 
4.73446e-21 -1.37265e-23 7.80451e-22 -8.82779e-24 -8.32509e-23 4.73342e-21 -5.35404e-23 1.13157e-34 
5.23392e-21 -7.19447e-24 6.27128e-22 -2.48523e-23 -5.9993e-23 5.22948e-21 -2.07238e-22 -1.65618e-33 
4.00738e-21 -6.95343e-24 6.54446e-22 -1.13093e-23 -4.25693e-23 4.00655e-21 -6.92364e-23 9.43252e-34 
3.44727e-21 -1.09339e-24 6.46364e-23 0 -5.83055e-23 3.44678e-21 0 4.49319e-34 
4.88748e-21 -1.57948e-23 8.94225e-22 2.56299e-23 -8.62795e-23 4.88471e-21 1.40004e-22 -4.60268e-34 
4.88828e-21 -1.79131e-23 1.74145e-21 0 -5.02798e-23 4.88802e-21 0 2.19612e-34 
4.72988e-21 -6.02873e-25 1.13943e-21 1.51782e-23 -2.50237e-24 4.72946e-21 6.30006e-23 2.77293e-34 
5.29517e-21 -7.50189e-24 1.27188e-21 3.93407e-23 -3.12168e-23 5.29254e-21 1.63704e-22 -7.91398e-34 
9.04529e-21 -8.65514e-23 1.63688e-21 7.45204e-23 -4.77116e-22 9.02335e-21 4.10795e-22 5.14247e-34 
5.63713e-21 -3.98633e-23 1.0407e-21 2.05979e-23 -2.15727e-22 5.6319e-21 1.11469e-22 1.75228e-33 
8.29889e-21 -7.1808e-23 1.4842e-21 9.0971e-23 -4.00294e-22 8.2737e-21 5.07118e-22 4.56285e-34 
6.83552e-21 -3.41849e-23 1.24677e-21 4.31057e-23 -1.87239e-22 6.82887e-21 2.361e-22 -5.30736e-34 
6.3477e-21 -1.23558e-23 1.02326e-21 3.55057e-23 -7.65968e-23 6.34342e-21 2.20108e-22 1.0335e-33 
5.49844e-21 -9.52458e-24 9.06389e-22 1.02523e-23 -5.77722e-23 5.49778e-21 6.21861e-23 1.64277e-34 
6.51071e-21 -6.08585e-23 2.31944e-21 0 -1.70772e-22 6.50847e-21 0 1.36289e-33 
4.73004e-21 -1.60541e-24 3.37016e-21 0 -2.2532e-24 4.73004e-21 0 5.60885e-34 
5.051e-21 -8.31802e-24 1.22853e-21 2.96693e-23 -3.41881e-23 5.04941e-21 1.21945e-22 -2.22632e-34 
1.19234e-20 -1.41874e-22 2.17975e-21 0 -7.74424e-22 1.18982e-20 0 -9.6586e-34 
4.70148e-21 -6.37221e-24 0 3.34981e-21 -8.94344e-24 0 4.70148e-21 -4.0039e-34 
1.1129e-20 -1.36434e-22 4.58432e-23 2.05033e-21 -7.38736e-22 2.48222e-22 1.11017e-20 -6.81087e-34 
7.13982e-21 -5.11747e-23 2.2512e-23 1.3205e-21 -2.7645e-22 1.21612e-22 7.13343e-21 -4.09659e-34 
1.31638e-20 -1.62111e-22 1.08451e-22 2.3822e-21 -8.92822e-22 5.97295e-22 1.31199e-20 1.52476e-34 
4.43305e-21 -5.27586e-25 1.58536e-27 1.10826e-21 -2.11035e-24 6.34143e-27 4.43305e-21 5.17594e-34 
5.22043e-21 -7.396e-24 3.87854e-23 1.25393e-21 -3.07762e-23 1.61393e-22 5.21784e-21 3.28079e-34 
4.03761e-21 -7.13755e-24 2.25843e-23 6.50869e-22 -4.42479e-23 1.40007e-22 4.03494e-21 -3.05948e-34 
4.71581e-21 -1.53814e-23 3.70943e-23 8.52116e-22 -8.50301e-23 2.05061e-22 4.71059e-21 -2.02953e-34 
7.56476e-21 -5.34254e-23 2.38519e-23 1.39909e-21 -2.88615e-22 1.28853e-22 7.55816e-21 1.04368e-33 
5.90149e-21 -3.29917e-23 5.58237e-23 1.06135e-21 -1.83105e-22 3.09823e-22 5.89051e-21 -1.10898e-33 
8.36217e-21 -7.99209e-23 6.11096e-23 1.51965e-21 -4.3882e-22 3.35533e-22 8.34391e-21 -1.42097e-34 
4.72554e-21 -7.35968e-24 1.79003e-23 1.54542e-21 -2.25025e-23 5.47308e-23 4.72517e-21 -7.36075e-35 
5.15616e-21 -1.49491e-23 9.61409e-24 8.49967e-22 -9.06662e-23 5.83093e-23 5.15504e-21 1.82511e-34 
6.7855e-21 -9.32724e-24 3.22197e-23 8.13038e-22 -7.77777e-23 2.68673e-22 6.77974e-21 -1.07401e-33 
5.48669e-21 -9.52028e-24 1.54842e-23 8.96033e-22 -5.82837e-23 9.47949e-23 5.48556e-21 1.45909e-33 
2.84082e-21 -9.01035e-25 0 5.32654e-23 -4.80483e-23 0 2.84041e-21 -8.34449e-34 
4.52546e-21 -1.46249e-23 -2.37314e-23 8.27988e-22 -7.98886e-23 -1.29633e-22 4.52289e-21 -5.5561e-34 
4.72858e-21 -1.73279e-23 0 1.68456e-21 -4.86372e-23 0 4.72833e-21 -1.68932e-36 
5.42129e-21 -6.91e-25 -1.73969e-23 1.30599e-21 -2.86816e-24 -7.22099e-23 5.4208e-21 5.69575e-34 
4.5481e-21 -6.44349e-24 -3.37903e-23 1.09244e-21 -2.68126e-23 -1.40608e-22 4.54585e-21 -6.16088e-34 
9.4854e-21 -9.07627e-23 -7.81463e-23 1.71653e-21 -5.00331e-22 -4.30783e-22 9.4624e-21 -8.62608e-35 
6.56681e-21 -4.64376e-23 -2.39949e-23 1.21233e-21 -2.51305e-22 -1.29853e-22 6.56071e-21 -9.31509e-34 
8.22167e-21 -7.11399e-23 -9.01246e-23 1.47039e-21 -3.9657e-22 -5.024e-22 8.19672e-21 1.92243e-33 
5.66899e-21 -2.8351e-23 -3.57494e-23 1.034e-21 -1.55285e-22 -1.95808e-22 5.66348e-21 -1.07136e-33 
6.11111e-21 -1.18953e-23 -3.41824e-23 9.8512e-22 -7.37419e-23 -2.11905e-22 6.10699e-21 7.31282e-34 
4.75737e-21 -8.24089e-24 -8.87051e-24 7.84229e-22 -4.99858e-23 -5.38049e-23 4.75681e-21 -2.4824e-34 
6.02022e-21 -5.62737e-23 0 2.1447e-21 -1.57907e-22 0 6.01815e-21 1.8746e-33 
4.99524e-21 -1.69542e-24 0 3.55911e-21 -2.37953e-24 0 4.99524e-21 2.49188e-34 
4.52441e-21 -7.45083e-24 -2.65762e-23 1.10045e-21 -3.06238e-23 -1.09231e-22 4.52299e-21 8.90528e-35 
1.05875e-20 -1.25979e-22 0 1.93553e-21 -6.87658e-22 0 1.05652e-20 -3.12098e-34 
4.93491e-21 -6.68859e-24 -3.51613e-21 0 -9.38748e-24 -4.9349e-21 0 -1.5627e-34 
1.22085e-20 -1.49667e-22 -2.2492e-21 5.02896e-23 -8.10388e-22 -1.21785e-20 2.72298e-22 8.40768e-34 
5.87172e-21 -4.20856e-23 -1.08596e-21 1.85137e-23 -2.2735e-22 -5.86646e-21 1.00012e-22 9.10353e-35 
1.49765e-20 -1.84434e-22 -2.71024e-21 1.23385e-22 -1.01577e-21 -1.49266e-20 6.79544e-22 -1.08059e-33 
3.84682e-21 -4.57817e-25 -9.61704e-22 1.37571e-27 -1.83127e-24 -3.84682e-21 5.50283e-27 2.98519e-34 
4.52809e-21 -6.41514e-24 -1.08763e-21 3.36417e-23 -2.66946e-23 -4.52585e-21 1.39989e-22 4.10725e-34 
4.56495e-21 -8.06977e-24 -7.35877e-22 2.5534e-23 -5.0027e-23 -4.56193e-21 1.58293e-22 -5.48468e-34 
5.51886e-21 -1.80007e-23 -9.97222e-22 4.3411e-23 -9.95097e-23 -5.51274e-21 2.39981e-22 -3.65982e-35 
7.25544e-21 -5.12408e-23 -1.34188e-21 2.28766e-23 -2.76813e-22 -7.2491e-21 1.23584e-22 7.25047e-34 
7.89123e-21 -4.41152e-23 -1.41919e-21 7.46452e-23 -2.4484e-22 -7.87654e-21 4.14282e-22 -2.08768e-33 
8.14654e-21 -7.786e-23 -1.48046e-21 5.95338e-23 -4.27504e-22 -8.12875e-21 3.26881e-22 -2.97412e-35 
4.44304e-21 -6.91971e-24 -1.45303e-21 1.68302e-23 -2.11573e-23 -4.4427e-21 5.1459e-23 -1.65617e-34 
4.64041e-21 -1.34538e-23 -7.64949e-22 8.65243e-24 -8.15972e-23 -4.6394e-21 5.24769e-23 6.57041e-34 
6.90891e-21 -9.49688e-24 -8.27825e-22 3.28057e-23 -7.91923e-23 -6.90304e-21 2.73559e-22 -1.87198e-33 
4.20875e-21 -7.30284e-24 -6.87332e-22 1.18776e-23 -4.47084e-23 -4.20788e-21 7.27156e-23 2.28444e-34 
4.48426e-22 -1.42229e-25 -8.40799e-24 0 -7.58446e-24 -4.48361e-22 0 2.56754e-34 
4.8747e-21 -1.57535e-23 -8.91885e-22 -2.55628e-23 -8.60538e-23 -4.87194e-21 -1.39637e-22 -9.56701e-34 
4.59558e-21 -1.68405e-23 -1.63718e-21 0 -4.72692e-23 -4.59534e-21 0 2.4833e-34 
5.57515e-21 -7.10612e-25 -1.34305e-21 -1.78906e-23 -2.94957e-24 -5.57466e-21 -7.42594e-23 5.72073e-34 
4.51308e-21 -6.39387e-24 -1.08403e-21 -3.35301e-23 -2.66061e-23 -4.51084e-21 -1.39525e-22 -5.15911e-34 
1.03192e-20 -9.87414e-23 -1.86742e-21 -8.50159e-23 -5.44314e-22 -1.02942e-20 -4.68651e-22 5.64013e-34 
6.25673e-21 -4.42449e-23 -1.15508e-21 -2.28619e-23 -2.39438e-22 -6.25092e-21 -1.23721e-22 1.22138e-33 
8.10561e-21 -7.01356e-23 -1.44964e-21 -8.88523e-23 -3.90971e-22 -8.08101e-21 -4.95308e-22 6.27391e-34 
7.02523e-21 -3.51337e-23 -1.28138e-21 -4.43021e-23 -1.92435e-22 -7.0184e-21 -2.42653e-22 -6.16444e-34 
5.15268e-21 -1.00297e-23 -8.30619e-22 -2.88214e-23 -6.21766e-23 -5.14921e-21 -1.78671e-22 1.17901e-33 
4.57909e-21 -7.93205e-24 -7.54839e-22 -8.53809e-24 -4.81126e-23 -4.57854e-21 -5.17885e-23 -5.32986e-34 
6.11064e-21 -5.71189e-23 -2.17691e-21 0 -1.60278e-22 -6.10854e-21 0 1.42706e-33 
5.17627e-21 -1.75686e-24 -3.68809e-21 0 -2.46577e-24 -5.17627e-21 0 4.76414e-34 
4.47121e-21 -7.36322e-24 -1.08751e-21 -2.62637e-23 -3.02637e-23 -4.46981e-21 -1.07947e-22 -3.71053e-35 
1.12349e-20 -1.33681e-22 -2.05387e-21 0 -7.29703e-22 -1.12111e-20 0 -6.60333e-34 
3.86271e-20 0 -3.22664e-20 -3.22664e-20 0 -2.73135e-20 -2.73135e-20 1.93124e-32 
0 0 0 0 0 0 0 0 
0 0 0 0 0 0 0 0 
0 0 0 0 0 0 0 0 
0 0 0 0 0 0 0 0 
0 0 0 0 0 0 0 0 
0 0 0 0 0 0 0 0 
0 0 0 0 0 0 0 0 
0 0 0 0 0 0 0 0 
0 0 0 0 0 0 0 0 
0 0 0 0 0 0 0 0 
0 0 0 0 0 0 0 0 
0 0 0 0 0 0 0 0 
0 0 0 0 0 0 0 0 
0 0 0 0 0 0 0 0 
0 0 0 0 0 0 0 0 
0 0 0 0 0 0 0 0 
0 0 0 0 0 0 0 0 
0 0 0 0 0 0 0 0 
0 0 0 0 0 0 0 0 
0 0 0 0 0 0 0 0 
0 0 0 0 0 0 0 0 
0 0 0 0 0 0 0 0 
0 0 0 0 0 0 0 0 
0 0 0 0 0 0 0 0 
0 0 0 0 0 0 0 0 
0 0 0 0 0 0 0 0 
0 0 0 0 0 0 0 0 
0 0 0 0 0 0 0 0 
0 0 0 0 0 0 0 0 
0 0 0 0 0 0 0 0 
0 0 0 0 0 0 0 0 
0 0 0 0 0 0 0 0 
0 0 0 0 0 0 0 0 
0 0 0 0 0 0 0 0 
0 0 0 0 0 0 0 0 
0 0 0 0 0 0 0 0 
0 0 0 0 0 0 0 0 
0 0 0 0 0 0 0 0 
0 0 0 0 0 0 0 0 
0 0 0 0 0 0 0 0 
0 0 0 0 0 0 0 0 
0 0 0 0 0 0 0 0 
0 0 0 0 0 0 0 0 
0 0 0 0 0 0 0 0 
0 0 0 0 0 0 0 0 
0 0 0 0 0 0 0 0 
3.92585e-20 0 3.27939e-20 3.27939e-20 0 2.77599e-20 2.77599e-20 1.99726e-32 
4.69371e-20 -1.9207e-21 -2.91072e-22 -1.08393e-20 -8.18674e-21 -1.24066e-21 -4.6201e-20 -2.30135e-32 
5.21685e-20 -3.16857e-21 -1.15703e-21 -1.75709e-20 -9.23888e-21 -3.37366e-21 -5.12329e-20 -1.51235e-32 
3.86854e-20 -1.41567e-21 -2.48961e-22 -7.91751e-21 -6.80581e-21 -1.19687e-21 -3.80632e-20 -2.01959e-33 
8.14497e-20 -2.44649e-21 -1.95212e-21 -9.67197e-21 -1.96016e-20 -1.56407e-20 -7.74932e-20 -6.35075e-33 
9.74813e-20 -1.616e-21 -9.55553e-22 -6.49842e-21 -2.32888e-20 -1.37709e-20 -9.36515e-20 -5.5424e-33 
9.34339e-20 -1.64296e-21 -6.50504e-22 -6.75335e-21 -2.19903e-20 -8.70674e-21 -9.03909e-20 8.49056e-33 
5.66261e-20 -9.27351e-22 -3.3928e-22 -4.1821e-21 -1.22204e-20 -4.47095e-21 -5.51107e-20 6.51141e-33 
3.85012e-20 -1.20908e-21 -3.38443e-22 -6.64152e-21 -6.88711e-21 -1.92782e-21 -3.78311e-20 1.7484e-34 
4.29322e-20 -1.49544e-21 -4.00339e-22 -8.05457e-21 -7.82768e-21 -2.09552e-21 -4.21605e-20 -4.76643e-33 
4.42839e-20 -1.42337e-21 -6.27825e-22 -7.56663e-21 -8.15966e-21 -3.59908e-21 -4.33766e-20 1.64919e-33 
4.87789e-20 -1.6264e-21 -8.21254e-22 -8.30318e-21 -9.33263e-21 -4.71252e-21 -4.76453e-20 -4.21333e-34 
1.3135e-19 -3.04166e-21 -2.68133e-21 -1.51148e-20 -2.55299e-20 -2.25055e-20 -1.26864e-19 4.06452e-32 
4.64827e-20 -1.74458e-21 -1.00838e-21 -8.71912e-21 -9.06174e-21 -5.23776e-21 -4.5289e-20 -3.55444e-33 
4.96422e-20 -1.08125e-21 -3.77432e-22 -5.32406e-21 -9.85623e-21 -3.44053e-21 -4.85321e-20 1.12688e-32 
4.99967e-20 -1.38334e-21 -7.46303e-22 -6.51831e-21 -1.03149e-20 -5.56478e-21 -4.86036e-20 -9.96269e-34 
7.3687e-20 -1.2384e-21 -5.87153e-22 -5.0569e-21 -1.74171e-20 -8.25783e-21 -7.11212e-20 -1.84358e-32 
5.68017e-20 -8.84072e-22 -3.88725e-22 -3.967e-21 -1.22994e-20 -5.40803e-21 -5.51898e-20 -1.48037e-32 
5.55738e-20 -1.71068e-21 -7.61063e-22 -7.76677e-21 -1.18996e-20 -5.294e-21 -5.40261e-20 6.69844e-35 