ITEM: TIMESTEP
120
ITEM: NUMBER OF SURFS
6916
ITEM: BOX BOUNDS oo rr rr
-0.35 0.35
-0.25 0.25
-0.25 0.25
ITEM: SURFS f_save[1] f_save[2] f_save[3] f_save[4] f_save[5] f_save[6] f_save[7] f_save[8] 
10.3016 -7.72945e-05 0 0 -10.3016 0 0 0 
6.29211 -4.72105e-05 0 0 -6.29211 0 0 0 
0 0 0 0 0 0 0 0 
0.94677 -1.54601e-05 0.000284149 3.68552e-07 0 0.94677 0 120.832 
0.711629 -5.28412e-05 0.000213562 -2.07887e-05 0 0.711629 0 464.843 
0.950257 -4.22142e-05 -0.000285196 1.58028e-06 0 -0.950257 0 289.543 
0.880518 -3.61664e-05 -0.000264246 -3.93282e-06 0 -0.880518 0 269.036 
0 0 0 0 0 0 0 0 
0 0 0 0 0 0 0 0 
0 0 0 0 0 0 0 0 
0.210911 -4.28048e-05 9.41097e-06 0.000123383 0 0 0.210911 142.618 
0.146476 -6.66705e-07 8.40247e-07 8.56886e-05 0 0 0.146476 0.303574 
0 0 0 0 0 0 0 0 
11.6889 -2.84917e-05 0 0 -11.6889 0 0 0 
0 0 0 0 0 0 0 0 
0 0 0 0 0 0 0 0 
0 0 0 0 0 0 0 0 
0 0 0 0 0 0 0 0 
12.4552 -3.03595e-05 0 0 -12.4552 0 0 0 
18.0833 -4.40779e-05 0 0 -18.0833 0 0 0 
0 0 0 0 0 0 0 0 
0 0 0 0 0 0 0 0 
10.9339 -2.59681e-05 0 0 -10.9339 0 0 0 
7.77771 -1.84721e-05 0 0 -7.77771 0 0 0 
0 0 0 0 0 0 0 0 
0 0 0 0 0 0 0 0 
0 0 0 0 0 0 0 0 
0 0 0 0 0 0 0 0 
10.7017 -2.60855e-05 0 0 -10.7017 0 0 0 
19.2609 -4.69486e-05 0 0 -19.2609 0 0 0 
0 0 0 0 0 0 0 0 
0 0 0 0 0 0 0 0 
13.9299 -3.30836e-05 1.83446e-06 -6.00923e-07 -13.9299 0 0 11081.9 
0 0 0 0 0 0 0 0 
17.5861 -4.1767e-05 -1.5666e-06 -1.17385e-06 -17.5861 0 0 9936.95 
0 0 0 0 0 0 0 0 
5.95281 -1.4138e-05 1.18166e-06 1.08476e-06 -5.95281 0 0 9321.22 
0 0 0 0 0 0 0 0 
10.7098 -2.54357e-05 0 0 -10.7098 0 0 0 
34.4008 -8.17017e-05 0 0 -34.4008 0 0 0 
0 0 0 0 0 0 0 0 
29.8119 -7.08034e-05 0 0 -29.8119 0 0 0 
23.9549 -5.68931e-05 0 0 -23.9549 0 0 0 
20.9675 -4.9798e-05 0 0 -20.9675 0 0 0 
6.19952 -1.47239e-05 -1.619e-06 2.02274e-06 -6.19952 0 0 9794.68 
0 0 0 0 0 0 0 0 
24.2901 -5.92069e-05 -8.87643e-07 1.96656e-07 -24.2901 0 0 9093.88 
3.73499 -9.10403e-06 -1.16868e-06 -5.39872e-07 -3.73499 0 0 6694.43 
11.2211 -2.73515e-05 0 0 -11.2211 0 0 0 
11.1145 -2.70916e-05 0 0 -11.1145 0 0 0 
23.2329 -5.66302e-05 0 0 -23.2329 0 0 0 
6.95675 -1.69571e-05 0 0 -6.95675 0 0 0 
0 0 0 0 0 0 0 0 
0 0 0 0 0 0 0 0 
0 0 0 0 0 0 0 0 
0 0 0 0 0 0 0 0 
19.2698 -4.57658e-05 0 0 -19.2698 0 0 0 
0 0 0 0 0 0 0 0 
12.2312 -2.9049e-05 0 0 -12.2312 0 0 0 
36.452 -8.65734e-05 0 0 -36.452 0 0 0 
10.4336 -2.54319e-05 0 0 -10.4336 0 0 0 
10.0242 -2.44339e-05 0 0 -10.0242 0 0 0 
20.6577 -5.03533e-05 0 0 -20.6577 0 0 0 
23.3008 -5.67957e-05 0 0 -23.3008 0 0 0 
0 0 0 0 0 0 0 0 
0 0 0 0 0 0 0 0 
10.3269 -2.5172e-05 0 0 -10.3269 0 0 0 
4.6442 -1.13203e-05 9.61554e-07 8.91266e-07 -4.6442 0 0 6371.91 
23.6693 -5.62146e-05 0 0 -23.6693 0 0 0 
0 0 0 0 0 0 0 0 
15.283 -3.72525e-05 0 0 -15.283 0 0 0 
7.42287 -1.80933e-05 0 0 -7.42287 0 0 0 
0 0 0 0 0 0 0 0 
11.8299 -2.8096e-05 0 0 -11.8299 0 0 0 
22.2636 -5.42675e-05 0 0 -22.2636 0 0 0 
11.3304 -2.76179e-05 -3.01765e-06 8.11425e-07 -11.3304 0 0 17118.4 
13.9706 -3.40533e-05 -1.51693e-07 8.24689e-07 -13.9706 0 0 4546.48 
10.3811 -2.53039e-05 0 0 -10.3811 0 0 0 
4.58937 -1.08998e-05 0 0 -4.58937 0 0 0 
22.7854 -5.41153e-05 0 0 -22.7854 0 0 0 
0 0 0 0 0 0 0 0 
0 0 0 0 0 0 0 0 
22.9612 -5.4533e-05 0 0 -22.9612 0 0 0 
8.16593 -1.93941e-05 0 0 -8.16593 0 0 0 
10.646 -2.52843e-05 0 0 -10.646 0 0 0 
11.3243 -2.68953e-05 0 0 -11.3243 0 0 0 
0 0 0 0 0 0 0 0 
11.6573 -2.76861e-05 0 0 -11.6573 0 0 0 
0 0 0 0 0 0 0 0 
10.3187 -2.51519e-05 0 0 -10.3187 0 0 0 
4.23117 -1.03135e-05 0 0 -4.23117 0 0 0 
21.5662 -5.2568e-05 0 0 -21.5662 0 0 0 
0 0 0 0 0 0 0 0 
0 0 0 0 0 0 0 0 
32.1569 -7.83826e-05 0 0 -32.1569 0 0 0 
32.0759 -7.81852e-05 2.41978e-06 1.42334e-06 -32.0759 0 0 17848.4 
24.7983 -5.8896e-05 -1.25802e-07 -1.45774e-06 -24.7983 0 0 8845.67 
3.95771 -9.39957e-06 1.36818e-06 -6.25114e-07 -3.95771 0 0 4965.26 
0 0 0 0 0 0 0 0 
0 0 0 0 0 0 0 0 
11.5431 -2.74148e-05 0 0 -11.5431 0 0 0 
33.6181 -7.98432e-05 5.87309e-06 5.03319e-07 -33.6181 0 0 18091.1 
5.80817 -1.37944e-05 9.71844e-07 1.00559e-06 -5.80817 0 0 8957.65 
11.064 -2.6277e-05 0 0 -11.064 0 0 0 
0 0 0 0 0 0 0 0 
0 0 0 0 0 0 0 0 
6.12853 -1.45552e-05 6.04842e-07 -4.3271e-07 -6.12853 0 0 10736.4 
0 0 0 0 0 0 0 0 
6.89611 -1.63782e-05 0 0 -6.89611 0 0 0 
6.92826 -1.64546e-05 -1.10667e-06 -1.78111e-06 -6.92826 0 0 11223.8 
0 0 0 0 0 0 0 0 
0 0 0 0 0 0 0 0 
23.4455 -5.5683e-05 0 0 -23.4455 0 0 0 
11.956 -2.83956e-05 0 0 -11.956 0 0 0 
0 0 0 0 0 0 0 0 
2.55699 -6.07285e-06 9.9646e-06 -1.24994e-06 -2.55699 0 0 5029.22 
0 0 0 0 0 0 0 0 
0 0 0 0 0 0 0 0 
9.79569 -2.32648e-05 0 0 -9.79569 0 0 0 
0 0 0 0 0 0 0 0 
10.252 -2.43487e-05 0 0 -10.252 0 0 0 
2.27762 -5.40935e-06 -8.62063e-06 -3.14502e-06 -2.27762 0 0 6561.41 
0 0 0 0 0 0 0 0 
0 0 0 0 0 0 0 0 
5.92481 -1.40715e-05 -6.53778e-07 -1.95354e-06 -5.92481 0 0 9487.61 
8.14538 -1.93453e-05 0 0 -8.14538 0 0 0 
14.1351 -3.44544e-05 0 0 -14.1351 0 0 0 
0 0 0 0 0 0 0 0 
0 0 0 0 0 0 0 0 
0 0 0 0 0 0 0 0 
0 0 0 0 0 0 0 0 
0 0 0 0 0 0 0 0 
11.7974 -2.87562e-05 0 0 -11.7974 0 0 0 
19.3468 -4.71578e-05 0 0 -19.3468 0 0 0 
0 0 0 0 0 0 0 0 
0 0 0 0 0 0 0 0 
10.2936 -2.44475e-05 0 0 -10.2936 0 0 0 
11.9841 -2.84624e-05 0 0 -11.9841 0 0 0 
0 0 0 0 0 0 0 0 
21.4232 -5.22188e-05 0 0 -21.4232 0 0 0 
0 0 0 0 0 0 0 0 
0 0 0 0 0 0 0 0 
17.9788 -4.26997e-05 6.05089e-08 2.99647e-07 -17.9788 0 0 9643.99 
11.855 -2.81558e-05 0 0 -11.855 0 0 0 
0 0 0 0 0 0 0 0 
16.3098 -3.97552e-05 -1.72494e-07 -2.74779e-06 -16.3098 0 0 10013 
0 0 0 0 0 0 0 0 
0 0 0 0 0 0 0 0 
9.26606 -2.2007e-05 0 0 -9.26606 0 0 0 
11.2552 -2.67312e-05 0 0 -11.2552 0 0 0 
42.4301 -0.000103423 0 0 -42.4301 0 0 0 
24.8855 -6.06584e-05 4.24167e-07 -8.85409e-07 -24.8855 0 0 9721.29 
0 0 0 0 0 0 0 0 
0 0 0 0 0 0 0 0 
0 0 0 0 0 0 0 0 
0 0 0 0 0 0 0 0 
10.7612 -2.5558e-05 0 0 -10.7612 0 0 0 
14.3237 -3.4019e-05 0 0 -14.3237 0 0 0 
0 0 0 0 0 0 0 0 
0 0 0 0 0 0 0 0 
11.2857 -2.75089e-05 0 0 -11.2857 0 0 0 
10.3958 -2.53397e-05 0 0 -10.3958 0 0 0 
16.9403 -4.12921e-05 -5.82556e-07 1.54023e-06 -16.9403 0 0 8401.03 
0 0 0 0 0 0 0 0 
0 0 0 0 0 0 0 0 
0 0 0 0 0 0 0 0 
11.3331 -2.69163e-05 0 0 -11.3331 0 0 0 
0 0 0 0 0 0 0 0 
2.86958 -6.81529e-06 1.5424e-06 -3.07612e-07 -2.86958 0 0 5363.4 
16.3221 -3.87651e-05 0 0 -16.3221 0 0 0 
0 0 0 0 0 0 0 0 
0 0 0 0 0 0 0 0 
22.1647 -5.40266e-05 0 0 -22.1647 0 0 0 
0 0 0 0 0 0 0 0 
16.8471 -4.00119e-05 1.49571e-06 -3.33063e-06 -16.8471 0 0 16068.9 
7.13878 -1.69546e-05 0 0 -7.13878 0 0 0 
0 0 0 0 0 0 0 0 
0 0 0 0 0 0 0 0 
18.4549 -4.38305e-05 -9.02509e-07 1.55869e-07 -18.4549 0 0 9424.31 
0 0 0 0 0 0 0 0 
16.4134 -3.89821e-05 0 0 -16.4134 0 0 0 
12.0875 -2.87081e-05 0 0 -12.0875 0 0 0 
0 0 0 0 0 0 0 0 
0 0 0 0 0 0 0 0 
0 0 0 0 0 0 0 0 
10.7654 -2.5568e-05 0 0 -10.7654 0 0 0 
18.3328 -4.35404e-05 0 0 -18.3328 0 0 0 
11.8485 -2.81401e-05 0 0 -11.8485 0 0 0 
0 0 0 0 0 0 0 0 
0 0 0 0 0 0 0 0 
0 0 0 0 0 0 0 0 
6.57146 -1.56073e-05 7.97989e-07 4.96604e-07 -6.57146 0 0 11028.2 
0 0 0 0 0 0 0 0 
0 0 0 0 0 0 0 0 
32.7829 -7.78596e-05 0 0 -32.7829 0 0 0 
0 0 0 0 0 0 0 0 
0 0 0 0 0 0 0 0 
0 0 0 0 0 0 0 0 
11.3088 -2.75652e-05 0 0 -11.3088 0 0 0 
0 0 0 0 0 0 0 0 
19.3978 -4.60698e-05 0 0 -19.3978 0 0 0 
8.90733 -2.11549e-05 0 0 -8.90733 0 0 0 
0 0 0 0 0 0 0 0 
0 0 0 0 0 0 0 0 
0 0 0 0 0 0 0 0 
0 0 0 0 0 0 0 0 
0 0 0 0 0 0 0 0 
0 0 0 0 0 0 0 0 
0 0 0 0 0 0 0 0 
0 0 0 0 0 0 0 0 
0 0 0 0 0 0 0 0 
11.2665 -2.67578e-05 0 0 -11.2665 0 0 0 
0 0 0 0 0 0 0 0 
0 0 0 0 0 0 0 0 
23.9958 -5.69901e-05 0 0 -23.9958 0 0 0 
22.15 -5.26063e-05 0 0 -22.15 0 0 0 
0 0 0 0 0 0 0 0 
0 0 0 0 0 0 0 0 
0 0 0 0 0 0 0 0 
0 0 0 0 0 0 0 0 
6.3047 -1.49736e-05 -3.76921e-06 5.73761e-07 -6.3047 0 0 11401.7 
0 0 0 0 0 0 0 0 
0 0 0 0 0 0 0 0 
0 0 0 0 0 0 0 0 
0 0 0 0 0 0 0 0 
39.6908 -9.42659e-05 2.25172e-07 -3.53874e-07 -39.6908 0 0 8778.08 
19.0017 -4.5129e-05 0 0 -19.0017 0 0 0 
6.95695 -1.65228e-05 5.20286e-07 -1.52413e-06 -6.95695 0 0 12874.7 
0 0 0 0 0 0 0 0 
0 0 0 0 0 0 0 0 
23.9501 -5.68816e-05 0 0 -23.9501 0 0 0 
4.05062 -9.62025e-06 0 0 -4.05062 0 0 0 
10.9148 -2.59228e-05 0 0 -10.9148 0 0 0 
6.08711 -1.44569e-05 -1.64798e-06 9.37592e-07 -6.08711 0 0 9839.66 
0 0 0 0 0 0 0 0 
0 0 0 0 0 0 0 0 
2.54003 -6.03256e-06 5.80295e-07 3.84862e-07 -2.54003 0 0 2295.74 
0 0 0 0 0 0 0 0 
0 0 0 0 0 0 0 0 
0 0 0 0 0 0 0 0 
23.5164 -5.58515e-05 0 0 -23.5164 0 0 0 
0 0 0 0 0 0 0 0 
0 0 0 0 0 0 0 0 
4.62577 -1.12753e-05 -2.69355e-06 2.77854e-06 -4.62577 0 0 7721.81 
0 0 0 0 0 0 0 0 
0 0 0 0 0 0 0 0 
11.8438 -2.81291e-05 -2.6427e-08 -8.89922e-08 -11.8438 0 0 3176.43 
0 0 0 0 0 0 0 0 
0 0 0 0 0 0 0 0 
11.6116 -2.75776e-05 0 0 -11.6116 0 0 0 
0 0 0 0 0 0 0 0 
0 0 0 0 0 0 0 0 
0 0 0 0 0 0 0 0 
17.4253 -4.24743e-05 0 0 -17.4253 0 0 0 
7.78285 -1.84844e-05 0 0 -7.78285 0 0 0 
0 0 0 0 0 0 0 0 
0 0 0 0 0 0 0 0 
0 0 0 0 0 0 0 0 
11.0039 -2.61344e-05 0 0 -11.0039 0 0 0 
0 0 0 0 0 0 0 0 
10.698 -2.54077e-05 0 0 -10.698 0 0 0 
0 0 0 0 0 0 0 0 
0 0 0 0 0 0 0 0 
0 0 0 0 0 0 0 0 
0 0 0 0 0 0 0 0 
27.2923 -6.48192e-05 -9.39322e-07 1.54483e-06 -27.2923 0 0 10282.5 
6.3908 -1.51782e-05 -1.53393e-06 -8.66395e-07 -6.3908 0 0 11521.6 
0 0 0 0 0 0 0 0 
0 0 0 0 0 0 0 0 
0 0 0 0 0 0 0 0 
9.738 -2.31278e-05 0 0 -9.738 0 0 0 
11.6902 -2.77644e-05 0 0 -11.6902 0 0 0 
11.456 -2.72082e-05 0 0 -11.456 0 0 0 
0 0 0 0 0 0 0 0 
223.181 -2.78978e-05 0 0 -223.181 0 0 0 
0 0 0 0 0 0 0 0 
0 0 0 0 0 0 0 0 
11.282 -2.67949e-05 0 0 -11.282 0 0 0 
0 0 0 0 0 0 0 0 
28.7386 -6.82544e-05 -5.72869e-07 -1.23123e-06 -28.7386 0 0 7655.61 
0 0 0 0 0 0 0 0 
0 0 0 0 0 0 0 0 
0 0 0 0 0 0 0 0 
0 0 0 0 0 0 0 0 
10.9141 -2.5921e-05 0 0 -10.9141 0 0 0 
6.1813 -1.46806e-05 4.10742e-07 8.42006e-07 -6.1813 0 0 10163.1 
0 0 0 0 0 0 0 0 
0 0 0 0 0 0 0 0 
7.53443 -1.78943e-05 0 0 -7.53443 0 0 0 
33.6891 -8.00117e-05 0 0 -33.6891 0 0 0 
0 0 0 0 0 0 0 0 
0 0 0 0 0 0 0 0 
0 0 0 0 0 0 0 0 
0 0 0 0 0 0 0 0 
3.83208 -9.10116e-06 -5.83627e-07 1.21878e-06 -3.83208 0 0 6262.25 
12.3612 -2.93579e-05 0 0 -12.3612 0 0 0 
0 0 0 0 0 0 0 0 
0 0 0 0 0 0 0 0 
8.31089 -1.97384e-05 0 0 -8.31089 0 0 0 
11.0489 -2.62412e-05 0 0 -11.0489 0 0 0 
0 0 0 0 0 0 0 0 
0 0 0 0 0 0 0 0 
131.193 -1.63991e-05 -6.36568e-07 -1.12738e-06 -131.193 0 0 213960 
0 0 0 0 0 0 0 0 
6.48509 -1.54021e-05 -5.50873e-07 9.32954e-07 -6.48509 0 0 9933.6 
0 0 0 0 0 0 0 0 
0 0 0 0 0 0 0 0 
10.8862 -2.58549e-05 0 0 -10.8862 0 0 0 
0 0 0 0 0 0 0 0 
0 0 0 0 0 0 0 0 
7.87431 -1.87014e-05 0 0 -7.87431 0 0 0 
7.76485 -1.84415e-05 0 0 -7.76485 0 0 0 
0 0 0 0 0 0 0 0 
0 0 0 0 0 0 0 0 
0 0 0 0 0 0 0 0 
0 0 0 0 0 0 0 0 
16.6818 -3.96194e-05 0 0 -16.6818 0 0 0 
21.6196 -5.13466e-05 0 0 -21.6196 0 0 0 
0 0 0 0 0 0 0 0 
0 0 0 0 0 0 0 0 
10.7347 -2.54951e-05 0 0 -10.7347 0 0 0 
29.8653 -7.09302e-05 8.24343e-07 -1.39579e-06 -29.8653 0 0 10296.4 
0 0 0 0 0 0 0 0 
0 0 0 0 0 0 0 0 
11.8364 -2.81115e-05 0 0 -11.8364 0 0 0 
10.7839 -2.56118e-05 0 0 -10.7839 0 0 0 
0 0 0 0 0 0 0 0 
0 0 0 0 0 0 0 0 
0 0 0 0 0 0 0 0 
12.5626 -2.98363e-05 -2.21252e-06 -1.13037e-06 -12.5626 0 0 15009.5 
0 0 0 0 0 0 0 0 
0 0 0 0 0 0 0 0 
22.5573 -5.49838e-05 0 0 -22.5573 0 0 0 
0 0 0 0 0 0 0 0 
9.52476 -0.00469503 1.68554e-05 -2.22697e-05 -9.52476 0 0 1976.63 
8.21626 -0.000400543 0 0 -8.21626 0 0 0 
10.8813 -2.72034e-05 0 0 -10.8813 0 0 0 
8.99548 -0.000427285 -4.10339e-08 3.39476e-06 -8.99548 0 0 1009.45 
9.89645 -2.47412e-05 0 0 -9.89645 0 0 0 
5.84223 -0.000277506 3.14484e-06 -3.20017e-06 -5.84223 0 0 870.679 
6.34403 -1.58601e-05 0 0 -6.34403 0 0 6.03778e-12 
9.70271 -0.000460879 1.58889e-06 1.28473e-06 -9.70271 0 0 993.735 
32.3189 -8.07972e-05 0 0 -32.3189 0 0 0 
9.74456 -0.000462866 2.14572e-06 2.19645e-06 -9.74456 0 0 946.988 
4.73912 -1.18478e-05 0 0 -4.73912 0 0 0 
10.5015 -0.00049882 3.66475e-06 4.61245e-06 -10.5015 0 0 2942.51 
0 0 0 0 0 0 0 0 
8.30757 -0.00039461 9.82326e-07 6.97594e-07 -8.30757 0 0 442.542 
20.9969 -5.24925e-05 0 0 -20.9969 0 0 1.91195e-11 
6.25506 -0.000304934 3.13941e-06 -7.38527e-07 -6.25506 0 0 2284.14 
8.89893 -0.00388314 -1.22108e-05 -7.30671e-06 -8.89893 0 0 1324.07 
7.80405 -0.000544027 -3.9813e-06 3.09669e-06 -7.80405 0 0 544.785 
10.073 -0.000866279 -6.2356e-06 -2.2993e-07 -10.073 0 0 1792.97 
12.5473 -0.00107907 -1.62507e-06 -3.01489e-06 -12.5473 0 0 1750.67 
9.57444 -0.000466754 -3.49366e-06 -1.54182e-07 -9.57444 0 0 1593.28 
0 0 0 0 0 0 0 0 
11.55 -0.000548626 -7.04805e-07 -6.72833e-07 -11.55 0 0 3273.16 
3.77646 -9.44118e-06 0 0 -3.77646 0 0 0 
6.61699 -0.000314307 1.56091e-06 3.12202e-06 -6.61699 0 0 1593.77 
5.86162 -1.46541e-05 8.55459e-07 -1.01953e-06 -5.86162 0 0 5842.11 
12.276 -0.000583109 3.81168e-07 -3.177e-06 -12.276 0 0 1632.89 
20.5072 -5.1268e-05 0 0 -20.5072 0 0 0 
7.77009 -0.000369079 8.07141e-07 1.7483e-06 -7.77009 0 0 500.004 
2.28069 -5.70174e-06 0 0 -2.28069 0 0 0 
14.3911 -0.000683576 2.86397e-06 -6.01802e-06 -14.3911 0 0 1992.85 
10.9602 -2.74004e-05 0 0 -10.9602 0 0 0 
6.86233 -0.000325961 -2.96541e-06 5.46209e-06 -6.86233 0 0 1629.31 
9.12913 -2.2823e-05 0 0 -9.12913 0 0 8.05034e-12 
7.46032 -0.000363691 1.99256e-06 1.03787e-06 -7.46032 0 0 1409.53 
9.71443 -0.000473579 1.12864e-05 -4.5754e-06 -9.71443 0 0 1516.31 
10.2191 -0.00503731 9.62935e-06 1.8749e-06 -10.2191 0 0 2432.59 
10.8754 -0.000935284 4.66062e-06 -3.63456e-06 -10.8754 0 0 1646.85 
8.85797 -0.000761787 7.98236e-07 1.53221e-06 -8.85797 0 0 1032.79 
6.35591 -8.35303e-05 1.97061e-06 2.231e-07 -6.35591 0 0 5192.34 
6.37028 -0.000310551 1.90598e-06 -5.19601e-07 -6.37028 0 0 1472.9 
0 0 0 0 0 0 0 0 
7.2 -0.000342 -5.01877e-06 8.67447e-07 -7.2 0 0 3811.31 
5.8527 -1.46318e-05 -1.16137e-06 1.69621e-07 -5.8527 0 0 9210.48 
8.03709 -0.000381762 -1.76835e-06 -3.18811e-07 -8.03709 0 0 3455.88 
0 0 0 0 0 0 0 0 
6.15767 -0.000292489 1.02966e-09 -2.34891e-06 -6.15767 0 0 632.736 
11.9877 -2.99692e-05 0 0 -11.9877 0 0 0 
14.6643 -0.000696554 -1.59692e-06 -8.55166e-07 -14.6643 0 0 442.934 
10.0264 -2.5066e-05 0 0 -10.0264 0 0 8.05037e-12 
13.3242 -0.000632899 -5.10834e-06 4.852e-07 -13.3242 0 0 3565.93 
0 0 0 0 0 0 0 0 
11.8896 -0.000564755 1.67991e-08 -1.60395e-06 -11.8896 0 0 2865.9 
0 0 0 0 0 0 0 0 
6.52861 -0.00031827 -4.81091e-06 3.2504e-06 -6.52861 0 0 735.728 
8.52207 -0.00420077 -1.22407e-06 6.14509e-06 -8.52207 0 0 1640.09 
0 0 0 0 0 0 0 0 
9.18656 -0.000436362 -1.42388e-06 -3.77608e-08 -9.18656 0 0 1371.77 
10.4169 -2.60424e-05 0 0 -10.4169 0 0 0 
9.45897 -0.000449301 -2.88957e-06 1.83733e-06 -9.45897 0 0 1392.14 
22.6912 -5.67282e-05 6.55353e-07 2.41105e-07 -22.6912 0 0 8545.38 
10.3835 -0.000493215 2.11261e-06 -2.41017e-06 -10.3835 0 0 2558.28 
10.3611 -2.59027e-05 0 0 -10.3611 0 0 0 
11.2202 -0.000532959 -4.01926e-06 -6.19358e-06 -11.2202 0 0 2914.05 
21.1865 -5.29664e-05 0 0 -21.1865 0 0 0 
6.27408 -0.000298019 7.38674e-06 2.27653e-07 -6.27408 0 0 1951.4 
5.91397 -1.47849e-05 -1.61823e-06 -8.32272e-07 -5.91397 0 0 10788 
6.67168 -0.000316905 1.65385e-06 1.26e-06 -6.67168 0 0 897.949 
8.44799 -2.11201e-05 0 0 -8.44799 0 0 7.04404e-12 
6.43304 -0.000313611 2.36502e-06 -3.82622e-06 -6.43304 0 0 1152.72 
0.100234 -2.78461e-05 5.86368e-05 -3.35449e-06 0 0.100234 0 79.6657 
0.141838 -1.24183e-05 4.14877e-05 -1.05545e-06 0 0.141838 0 87.8881 
0.062129 1.09298e-06 1.81727e-05 -1.15492e-06 0 0.062129 0 1.21129 
0 0 0 0 0 0 0 0 
0 0 0 0 0 0 0 0 
2.61309 6.2061e-06 0 0 2.61309 0 0 0 
0 0 0 0 0 0 0 0 
0 0 0 0 0 0 0 0 
0 0 0 0 0 0 0 0 
0 0 0 0 0 0 0 0 
0 0 0 0 0 0 0 0 
0 0 0 0 0 0 0 0 
0 0 0 0 0 0 0 0 
0 0 0 0 0 0 0 0 
0 0 0 0 0 0 0 0 
0 0 0 0 0 0 0 0 
0 0 0 0 0 0 0 0 
0 0 0 0 0 0 0 0 
0 0 0 0 0 0 0 0 
0 0 0 0 0 0 0 0 
0 0 0 0 0 0 0 0 
0 0 0 0 0 0 0 0 
0 0 0 0 0 0 0 0 
0 0 0 0 0 0 0 0 
0 0 0 0 0 0 0 0 
0 0 0 0 0 0 0 0 
0 0 0 0 0 0 0 0 
0 0 0 0 0 0 0 0 
5.8193 1.38209e-05 -4.34588e-07 -9.86725e-07 5.8193 0 0 8330.54 
0 0 0 0 0 0 0 0 
0 0 0 0 0 0 0 0 
0 0 0 0 0 0 0 0 
0 0 0 0 0 0 0 0 
0 0 0 0 0 0 0 0 
0 0 0 0 0 0 0 0 
0 0 0 0 0 0 0 0 
0 0 0 0 0 0 0 0 
0 0 0 0 0 0 0 0 
4.66091 1.19436e-05 0 0 4.66091 0 0 0 
0 0 0 0 0 0 0 0 
0 0 0 0 0 0 0 0 
0 0 0 0 0 0 0 0 
0 0 0 0 0 0 0 0 
0 0 0 0 0 0 0 0 
0 0 0 0 0 0 0 0 
0 0 0 0 0 0 0 0 
0 0 0 0 0 0 0 0 
0 0 0 0 0 0 0 0 
0 0 0 0 0 0 0 0 
0 0 0 0 0 0 0 0 
0 0 0 0 0 0 0 0 
0 0 0 0 0 0 0 0 
0 0 0 0 0 0 0 0 
0 0 0 0 0 0 0 0 
0 0 0 0 0 0 0 0 
0 0 0 0 0 0 0 0 
0 0 0 0 0 0 0 0 
0 0 0 0 0 0 0 0 
0 0 0 0 0 0 0 0 
0 0 0 0 0 0 0 0 
0 0 0 0 0 0 0 0 
0 0 0 0 0 0 0 0 
0 0 0 0 0 0 0 0 
0 0 0 0 0 0 0 0 
0 0 0 0 0 0 0 0 
0 0 0 0 0 0 0 0 
0 0 0 0 0 0 0 0 
0 0 0 0 0 0 0 0 
1.63703 3.88794e-06 0 0 1.63703 0 0 0 
0 0 0 0 0 0 0 0 
0 0 0 0 0 0 0 0 
0 0 0 0 0 0 0 0 
0 0 0 0 0 0 0 0 
0 0 0 0 0 0 0 0 
0 0 0 0 0 0 0 0 
0 0 0 0 0 0 0 0 
0 0 0 0 0 0 0 0 
0 0 0 0 0 0 0 0 
0 0 0 0 0 0 0 0 
0 0 0 0 0 0 0 0 
0 0 0 0 0 0 0 0 
0 0 0 0 0 0 0 0 
0 0 0 0 0 0 0 0 
0 0 0 0 0 0 0 0 
0 0 0 0 0 0 0 0 
32.3373 4.04217e-06 0 0 32.3373 0 0 0 
0 0 0 0 0 0 0 0 
0 0 0 0 0 0 0 0 
6.79034 1.61271e-05 0 0 6.79034 0 0 0 
0 0 0 0 0 0 0 0 
0 0 0 0 0 0 0 0 
0 0 0 0 0 0 0 0 
0 0 0 0 0 0 0 0 
0 0 0 0 0 0 0 0 
1.9774 4.69634e-06 0 0 1.9774 0 0 0 
0 0 0 0 0 0 0 0 
0 0 0 0 0 0 0 0 
0 0 0 0 0 0 0 0 
0 0 0 0 0 0 0 0 
0 0 0 0 0 0 0 0 
0 0 0 0 0 0 0 0 
0 0 0 0 0 0 0 0 
0 0 0 0 0 0 0 0 
0 0 0 0 0 0 0 0 
0 0 0 0 0 0 0 0 
0 0 0 0 0 0 0 0 
0 0 0 0 0 0 0 0 
0 0 0 0 0 0 0 0 
0 0 0 0 0 0 0 0 
0 0 0 0 0 0 0 0 
0 0 0 0 0 0 0 0 
0 0 0 0 0 0 0 0 
0 0 0 0 0 0 0 0 
0 0 0 0 0 0 0 0 
0 0 0 0 0 0 0 0 
0 0 0 0 0 0 0 0 
0 0 0 0 0 0 0 0 
0 0 0 0 0 0 0 0 
0 0 0 0 0 0 0 0 
0 0 0 0 0 0 0 0 
0 0 0 0 0 0 0 0 
0 0 0 0 0 0 0 0 
0 0 0 0 0 0 0 0 
0 0 0 0 0 0 0 0 
0 0 0 0 0 0 0 0 
0 0 0 0 0 0 0 0 
0 0 0 0 0 0 0 0 
0 0 0 0 0 0 0 0 
0 0 0 0 0 0 0 0 
0 0 0 0 0 0 0 0 
0 0 0 0 0 0 0 0 
0 0 0 0 0 0 0 0 
0 0 0 0 0 0 0 0 
0 0 0 0 0 0 0 0 
0 0 0 0 0 0 0 0 
0 0 0 0 0 0 0 0 
0 0 0 0 0 0 0 0 
12.4778 2.96348e-05 0 0 12.4778 0 0 0 
0 0 0 0 0 0 0 0 
0 0 0 0 0 0 0 0 
0 0 0 0 0 0 0 0 
0 0 0 0 0 0 0 0 
7.67634 1.82313e-05 0 0 7.67634 0 0 0 
0 0 0 0 0 0 0 0 
0 0 0 0 0 0 0 0 
0 0 0 0 0 0 0 0 
0 0 0 0 0 0 0 0 
0 0 0 0 0 0 0 0 
0 0 0 0 0 0 0 0 
0 0 0 0 0 0 0 0 
0 0 0 0 0 0 0 0 
0 0 0 0 0 0 0 0 
0 0 0 0 0 0 0 0 
0 0 0 0 0 0 0 0 
0 0 0 0 0 0 0 0 
0 0 0 0 0 0 0 0 
0 0 0 0 0 0 0 0 
0 0 0 0 0 0 0 0 
0 0 0 0 0 0 0 0 
0 0 0 0 0 0 0 0 
0 0 0 0 0 0 0 0 
0 0 0 0 0 0 0 0 
0 0 0 0 0 0 0 0 
0 0 0 0 0 0 0 0 
0 0 0 0 0 0 0 0 
0 0 0 0 0 0 0 0 
0 0 0 0 0 0 0 0 
0 0 0 0 0 0 0 0 
2.72177 6.46422e-06 0 0 2.72177 0 0 0 
0 0 0 0 0 0 0 0 
0 0 0 0 0 0 0 0 
0 0 0 0 0 0 0 0 
0 0 0 0 0 0 0 0 
0 0 0 0 0 0 0 0 
0 0 0 0 0 0 0 0 
0 0 0 0 0 0 0 0 
0 0 0 0 0 0 0 0 
0 0 0 0 0 0 0 0 
0 0 0 0 0 0 0 0 
0 0 0 0 0 0 0 0 
0 0 0 0 0 0 0 0 
0 0 0 0 0 0 0 0 
0 0 0 0 0 0 0 0 
0 0 0 0 0 0 0 0 
0 0 0 0 0 0 0 0 
0 0 0 0 0 0 0 0 
0 0 0 0 0 0 0 0 
0 0 0 0 0 0 0 0 
0 0 0 0 0 0 0 0 
0 0 0 0 0 0 0 0 
0 0 0 0 0 0 0 0 
0 0 0 0 0 0 0 0 
0 0 0 0 0 0 0 0 
0 0 0 0 0 0 0 0 
0 0 0 0 0 0 0 0 
0 0 0 0 0 0 0 0 
0 0 0 0 0 0 0 0 
0 0 0 0 0 0 0 0 
0 0 0 0 0 0 0 0 
0 0 0 0 0 0 0 0 
0 0 0 0 0 0 0 0 
0 0 0 0 0 0 0 0 
0 0 0 0 0 0 0 0 
0 0 0 0 0 0 0 0 
0 0 0 0 0 0 0 0 
0 0 0 0 0 0 0 0 
0 0 0 0 0 0 0 0 
0 0 0 0 0 0 0 0 
0 0 0 0 0 0 0 0 
0 0 0 0 0 0 0 0 
0 0 0 0 0 0 0 0 
0 0 0 0 0 0 0 0 
0 0 0 0 0 0 0 0 
0 0 0 0 0 0 0 0 
0 0 0 0 0 0 0 0 
0 0 0 0 0 0 0 0 
0 0 0 0 0 0 0 0 
0 0 0 0 0 0 0 0 
0 0 0 0 0 0 0 0 
0 0 0 0 0 0 0 0 
0 0 0 0 0 0 0 0 
0 0 0 0 0 0 0 0 
0 0 0 0 0 0 0 0 
0 0 0 0 0 0 0 0 
0 0 0 0 0 0 0 0 
0 0 0 0 0 0 0 0 
0 0 0 0 0 0 0 0 
0 0 0 0 0 0 0 0 
0 0 0 0 0 0 0 0 
0 0 0 0 0 0 0 0 
0 0 0 0 0 0 0 0 
1.90255 4.63748e-06 0 0 1.90255 0 0 0 
0 0 0 0 0 0 0 0 
0 0 0 0 0 0 0 0 
0 0 0 0 0 0 0 0 
0 0 0 0 0 0 0 0 
0 0 0 0 0 0 0 0 
0 0 0 0 0 0 0 0 
0 0 0 0 0 0 0 0 
0 0 0 0 0 0 0 0 
0 0 0 0 0 0 0 0 
0 0 0 0 0 0 0 0 
0 0 0 0 0 0 0 0 
0 0 0 0 0 0 0 0 
0 0 0 0 0 0 0 0 
0 0 0 0 0 0 0 0 
0 0 0 0 0 0 0 0 
0 0 0 0 0 0 0 0 
0 0 0 0 0 0 0 0 
0 0 0 0 0 0 0 0 
0 0 0 0 0 0 0 0 
0 0 0 0 0 0 0 0 
0 0 0 0 0 0 0 0 
0 0 0 0 0 0 0 0 
0 0 0 0 0 0 0 0 
0 0 0 0 0 0 0 0 
0 0 0 0 0 0 0 0 
0 0 0 0 0 0 0 0 
0 0 0 0 0 0 0 0 
0 0 0 0 0 0 0 0 
0 0 0 0 0 0 0 0 
2.0271 4.94105e-06 0 0 2.0271 0 0 0 
0 0 0 0 0 0 0 0 
0 0 0 0 0 0 0 0 
0 0 0 0 0 0 0 0 
0 0 0 0 0 0 0 0 
0 0 0 0 0 0 0 0 
0 0 0 0 0 0 0 0 
0 0 0 0 0 0 0 0 
0 0 0 0 0 0 0 0 
0 0 0 0 0 0 0 0 
0 0 0 0 0 0 0 0 
0 0 0 0 0 0 0 0 
0 0 0 0 0 0 0 0 
0 0 0 0 0 0 0 0 
0 0 0 0 0 0 0 0 
0 0 0 0 0 0 0 0 
0 0 0 0 0 0 0 0 
0 0 0 0 0 0 0 0 
0 0 0 0 0 0 0 0 
0 0 0 0 0 0 0 0 
0 0 0 0 0 0 0 0 
0 0 0 0 0 0 0 0 
0 0 0 0 0 0 0 0 
0 0 0 0 0 0 0 0 
0.557928 1.35996e-06 0 0 0.557928 0 0 0 
0 0 0 0 0 0 0 0 
0 0 0 0 0 0 0 0 
0 0 0 0 0 0 0 0 
0 0 0 0 0 0 0 0 
0 0 0 0 0 0 0 0 
0 0 0 0 0 0 0 0 
0 0 0 0 0 0 0 0 
0 0 0 0 0 0 0 0 
0 0 0 0 0 0 0 0 
3.03213 7.20136e-06 4.74173e-06 1.27494e-06 3.03213 0 0 3426.79 
0 0 0 0 0 0 0 0 
0.335352 8.17422e-07 0 0 0.335352 0 0 0 
0 0 0 0 0 0 0 0 
0 0 0 0 0 0 0 0 
0 0 0 0 0 0 0 0 
0 0 0 0 0 0 0 0 
0 0 0 0 0 0 0 0 
0 0 0 0 0 0 0 0 
0 0 0 0 0 0 0 0 
0 0 0 0 0 0 0 0 
0 0 0 0 0 0 0 0 
0 0 0 0 0 0 0 0 
0 0 0 0 0 0 0 0 
0 0 0 0 0 0 0 0 
0 0 0 0 0 0 0 0 
0 0 0 0 0 0 0 0 
0 0 0 0 0 0 0 0 
0 0 0 0 0 0 0 0 
0 0 0 0 0 0 0 0 
0 0 0 0 0 0 0 0 
0 0 0 0 0 0 0 0 
0 0 0 0 0 0 0 0 
0 0 0 0 0 0 0 0 
0 0 0 0 0 0 0 0 
0 0 0 0 0 0 0 0 
0 0 0 0 0 0 0 0 
11.3205 2.75936e-05 0 0 11.3205 0 0 0 
0 0 0 0 0 0 0 0 
0 0 0 0 0 0 0 0 
0 0 0 0 0 0 0 0 
0 0 0 0 0 0 0 0 
0 0 0 0 0 0 0 0 
0 0 0 0 0 0 0 0 
0.138933 -1.22657e-05 -8.12756e-05 -3.02567e-06 0 -0.138933 0 36.7559 
0.108812 0 -6.36548e-05 0 0 -0.108812 0 0 
2.49074 -0.000323329 0.000288776 -0.000301362 -1.24537 1.52526 -1.52526 669.965 
2.13727 -0.000318811 0.000240231 -0.000232388 -1.06863 1.3088 -1.30881 1019.38 
0.0476712 -0.000425325 0.000429267 0.000440416 0 0.0337086 0.0337086 59.4798 
0.0390153 -0.000879963 0.000774289 0.000806502 9.25513e-10 0.027588 0.027588 56.0129 
0.0292835 -0.000164136 0.000124757 0.00013209 0 0.0207065 0.0207065 49.3055 
0.0516142 -0.000346569 0.000763264 -8.88338e-06 0 0.0516142 0 44.4872 
0.0370411 -0.00033125 0.000547759 -5.39514e-06 0 0.0370411 0 43.3032 
0.0389512 -0.000236256 -6.54367e-06 0.000576006 0 0 0.0389512 29.5899 
0.037875 -0.000451709 4.583e-07 0.00056009 0 0 0.037875 57.0047 
0.0469651 -0.000948414 0.000922008 0.000980888 0 0.0332094 0.0332094 59.4271 
0.0401177 -0.00026577 0.000367912 0.000363969 -5.85659e-10 0.0283675 0.0283675 36.9399 
0.0371737 -0.000125769 0.000161924 0.000164128 0 0.0262858 0.0262858 39.4247 
2.19357 -0.000291814 -0.000258837 0.000255125 -1.09678 -1.34328 1.34328 697.993 
2.5933 -0.000358831 -0.000297595 0.000298735 -1.29665 -1.58806 1.58807 1062.9 
0.039915 -0.000710296 -0.000797569 -0.000819675 0 -0.0282242 -0.0282242 43.5723 
0.0327364 -0.000328456 -0.000298214 -0.000299008 1.7247e-09 -0.0231481 -0.0231481 43.7321 
0.0365794 -0.000131847 -0.000163491 -0.000157349 0 -0.0258655 -0.0258655 34.6024 
0.0514594 -0.000350282 -0.000760974 1.21968e-05 0 -0.0514594 0 42.7622 
0.0342982 -0.000425336 -0.000507198 1.12953e-05 0 -0.0342982 0 52.9553 
0.0415707 -0.000380865 -1.0622e-05 -0.000614743 0 0 -0.0415707 47.5452 
0.0391849 -0.000406849 -4.95323e-06 -0.000579462 0 0 -0.0391849 49.6103 
0.0469898 -0.000286005 -0.00042854 -0.000428712 0 -0.0332268 -0.0332268 40.1696 
0.0434561 -0.000806479 -0.000890109 -0.00087061 -2.85644e-10 -0.0307281 -0.0307281 50.6841 
0.0391064 -0.000192172 -0.000166633 -0.000176371 0 -0.0276524 -0.0276524 56.2037 
0.222592 -3.79146e-05 5.03881e-06 -0.000130216 0 0 -0.222592 152 
0.20653 -1.80615e-05 -5.02943e-06 -0.00012082 0 0 -0.20653 54.6443 
0.239164 -1.54295e-05 -0.000136324 -4.17495e-06 0 -0.239164 0 47.4185 
0.303654 -2.59964e-05 -0.000173083 1.70016e-07 0 -0.303654 0 69.1704 
0.22915 -1.91138e-05 -3.62963e-06 0.000134053 0 0 0.22915 63.2369 
0.226005 -2.34671e-05 -2.21324e-06 0.000132213 0 0 0.226005 106.206 
0.298975 -3.50485e-05 0.000170416 5.56635e-06 0 0.298975 0 111.117 
0.25952 -3.77132e-05 0.000147927 -5.29068e-06 0 0.25952 0 108.388 
0.121431 3.0822e-06 6.92155e-05 -7.27204e-06 0 0.121431 0 9.825 
0.179575 -2.06523e-05 0.000102358 -8.71138e-07 0 0.179575 0 66.8533 
0.0964104 -1.34491e-05 -6.9443e-06 -5.49539e-05 0 0 -0.0964104 59.6767 
0.0721764 -1.97609e-05 2.81253e-06 -4.11406e-05 0 0 -0.0721764 75.2977 
0.0730574 -2.46763e-05 -4.16427e-05 5.95948e-06 0 -0.0730574 0 87.0304 
0.154579 -3.76361e-06 -8.81098e-05 -7.55881e-06 0 -0.154579 0 84.9517 
0.141187 -3.45645e-06 -8.11823e-06 8.04763e-05 0 -2.76815e-08 0.141187 14.3796 
0.0468543 -2.3732e-05 -3.06081e-06 2.6707e-05 0 -9.18641e-09 0.0468543 91.1422 
0.200735 -1.85716e-05 0.000114419 1.66892e-06 0 0.200735 0 46.1615 
0.167456 -3.41851e-05 9.54499e-05 3.67345e-08 0 0.167456 0 133.836 
0.221277 -6.80847e-05 1.06779e-06 -0.000126128 0 0 -0.221277 216.803 
0.137787 1.05677e-06 -6.96711e-07 -7.85388e-05 0 0 -0.137787 21.3631 
0.154368 -3.53197e-05 -8.79897e-05 7.42224e-06 0 -0.154368 0 159.116 
0.203529 -5.35072e-05 -0.000116012 8.43832e-07 0 -0.203529 0 195.949 
0.204827 -7.69342e-06 2.00422e-06 0.000116751 0 0 0.204827 22.0595 
0.176955 -1.8822e-05 -5.01095e-06 0.000100864 0 0 0.176955 65.1921 
0.176135 -1.62601e-05 -0.000100397 3.05768e-06 0 -0.176135 0 61.6178 
0.165023 -4.29259e-05 -9.4063e-05 3.35379e-06 0 -0.165023 0 136.813 
0.278375 -2.8782e-05 -2.02654e-06 0.000158674 0 0 0.278375 84.4978 
0.260652 -3.1041e-05 1.62406e-06 0.000148572 0 0 0.260652 91.0399 
0.167723 1.28335e-06 9.56021e-05 -3.11762e-07 0 0.167723 0 -1.81723 
0.191811 -4.6428e-05 0.000109333 -1.02013e-05 0 0.191811 0 151.303 
0.219259 -3.01163e-05 9.34729e-06 -0.000124978 0 0 -0.219259 110.443 
0.379571 -4.6194e-05 -5.96148e-06 -0.000216355 0 0 -0.379571 121.044 
0.245142 -4.687e-05 0.000139731 -3.85525e-06 0 0.245142 0 160.193 
0.306854 -1.60644e-05 0.000174907 4.49224e-06 0 0.306854 0 40.3183 
0.207829 -5.11467e-05 1.79834e-05 -0.000118463 0 0 -0.207829 146.464 
0.201913 -4.65967e-06 6.88673e-06 -0.00011509 0 0 -0.201913 6.93623 
0.320508 -7.27839e-06 -0.00018269 -5.63614e-06 0 -0.320508 0 30.8996 
0.250131 -4.74399e-05 -0.000142575 3.716e-06 0 -0.250131 0 114.359 
0.221818 -1.28543e-05 4.98086e-06 0.000126437 0 0 0.221818 40.8767 
0.196837 -2.642e-05 -3.42341e-07 0.000112197 0 0 0.196837 82.01 
0.247381 -2.92111e-05 0.000141007 1.74244e-07 0 0.247381 0 94.3883 
0.270476 -4.40735e-05 0.000154171 1.21676e-05 0 0.270476 0 150.028 
0.213888 -3.96238e-05 1.28128e-05 -0.000121916 0 0 -0.213888 158.725 
0.210997 -1.94785e-05 7.63672e-06 -0.000120268 0 0 -0.210997 82.866 
0.284017 -7.5712e-06 -0.000161889 -9.53741e-06 0 -0.284017 0 67.2587 
0.273047 -1.31937e-05 -0.000155637 5.1048e-07 0 -0.273047 0 46.148 
0.268382 -2.55337e-05 -6.21458e-06 0.000152978 0 0 0.268382 86.9359 
0.199838 -3.87123e-06 7.60492e-06 0.000113908 0 0 0.199838 22.6821 
0.213013 -3.15732e-05 1.08073e-05 -0.000121417 0 0 -0.213013 92.2922 
0.0943342 -3.10542e-06 -4.97851e-07 -5.37705e-05 0 0 -0.0943342 -1.5473 
0.109826 -2.26994e-05 -6.26009e-05 6.07717e-07 0 -0.109826 0 55.665 
0.132318 -1.63234e-05 -7.54212e-05 1.47101e-06 0 -0.132318 0 45.5458 
0.157513 -2.99553e-05 8.26861e-06 8.97823e-05 0 0 0.157513 109.013 
0.166236 -6.5439e-06 3.19797e-06 9.47546e-05 0 0 0.166236 43.4833 
0.0974014 1.94156e-06 5.55188e-05 1.11594e-06 0 0.0974014 0 -0.274189 
0.100366 -1.62146e-05 5.72087e-05 -3.77108e-06 0 0.100366 0 54.8005 
0.213736 -4.01389e-05 0.000121829 -1.32188e-06 0 0.213736 0 99.6343 
0.191684 -7.14941e-05 0.00010926 1.2708e-05 0 0.191684 0 191.958 
0.165128 -3.89219e-07 1.76641e-06 -9.41231e-05 0 0 -0.165128 0.768652 
0.267323 1.32372e-06 -1.96579e-06 -0.000152374 0 0 -0.267323 1.30401 
0.264583 -1.19111e-05 -0.000150813 5.14709e-06 0 -0.264583 0 43.8894 
0.119225 -4.97952e-05 -6.79584e-05 2.11385e-07 0 -0.119225 0 132.082 
0.252597 -3.13799e-05 -5.8705e-06 0.00014398 0 0 0.252597 111.964 
0.194869 -3.24769e-05 -1.46052e-06 0.000111075 0 0 0.194869 86.5331 
0.302495 -2.15839e-05 -1.40607e-05 -0.000172422 0 0 -0.302495 78.6641 
0.255469 -2.1849e-05 1.1843e-06 -0.000145618 0 0 -0.255469 66.6088 
0.425307 -2.87817e-05 -0.000242425 3.02136e-06 0 -0.425307 0 90.3299 
0.149002 -2.3086e-05 -8.4931e-05 4.5449e-07 0 -0.149002 0 74.4532 
0.350158 -3.36972e-07 1.17033e-06 0.00019959 0 0 0.350158 19.8496 
0.168833 -2.9837e-05 -3.31004e-07 9.62349e-05 0 0 0.168833 112.784 
0.34009 -4.12399e-05 0.000193851 -2.61363e-06 0 0.34009 6.66791e-08 140.025 
0.214466 -3.45051e-06 0.000122246 -4.08724e-06 0 0.214466 4.2049e-08 0.293828 
0.24905 -1.62867e-05 -6.71764e-06 -0.000141959 0 0 -0.24905 76.2032 
0.192677 -3.64824e-05 7.70786e-06 -0.000109826 0 0 -0.192677 97.3309 
0.213447 -1.78139e-05 -0.000121665 -4.99141e-06 0 -0.213447 -4.18514e-08 73.5546 
0.269919 -2.07647e-05 -0.000153854 1.97982e-06 0 -0.269919 -5.29239e-08 76.9717 
0.245817 -3.15303e-06 7.57516e-06 0.000140116 0 0 0.245817 13.8272 
0.202291 -8.16785e-06 3.17103e-07 0.000115306 0 0 0.202291 24.1603 
0.232569 -2.61116e-05 0.000132564 1.01581e-06 0 0.232569 0 71.4165 
0.267277 -2.5159e-05 0.000152348 7.04543e-06 0 0.267277 0 85.2098 
0.162506 -3.00896e-05 -3.73339e-06 9.50659e-05 0 0 0.162506 97.7207 
0.162571 -7.40386e-06 -7.72911e-06 9.51041e-05 0 0 0.162571 23.799 
0.300892 -2.77906e-05 0.000171509 -7.33108e-07 0 0.300892 0 78.4342 
0.219394 -1.54663e-05 0.000125054 -4.51183e-06 0 0.219394 0 32.6729 
0.159243 -1.34994e-05 9.37868e-06 -9.31572e-05 0 0 -0.159243 19.5633 
0.1822 -3.26547e-05 5.05139e-06 -0.000106587 0 0 -0.1822 144.18 
0.174618 -1.34822e-05 -9.95325e-05 -8.76687e-07 0 -0.174618 0 41.1268 
0.334792 -2.19161e-05 -0.000190831 -2.91084e-09 0 -0.334792 0 97.4532 
0.21201 -4.37305e-05 -6.03855e-06 0.000124026 0 0 0.21201 152.944 
0.37182 -3.19106e-05 1.29153e-06 0.000217514 0 0 0.37182 103.286 
0.151942 -3.55554e-05 8.66068e-05 -2.30235e-06 0 0.151942 0 94.0814 
0.267068 -4.66458e-05 0.000152229 -1.34323e-06 0 0.267068 0 137.415 
0.149765 -2.80195e-05 -2.4131e-07 -8.76126e-05 0 0 -0.149765 73.4341 
0.360073 -1.04286e-05 -1.21213e-06 -0.000210643 0 0 -0.360073 12.6819 
0.268581 -2.35958e-05 -0.000153091 -4.02986e-06 0 -0.268581 0 70.1167 
0.148604 -1.23443e-05 -8.47045e-05 -2.65287e-06 0 -0.148604 0 50.1305 
0.0989225 0 0 -5.63858e-05 0 0 -0.0989225 0 
0.149527 -1.16578e-07 4.01972e-07 -8.52303e-05 0 0 -0.149527 -0.246488 
0.174858 -2.18191e-05 -9.96693e-05 -1.08779e-05 0 -0.174858 0 72.1225 
0.236002 -2.88936e-05 -0.000134521 4.477e-06 0 -0.236002 0 103.962 