ITEM: TIMESTEP
245
ITEM: NUMBER OF SURFS
6916
ITEM: BOX BOUNDS oo rr rr
-0.35 0.35
-0.25 0.25
-0.25 0.25
ITEM: SURFS f_save[1] f_save[2] f_save[3] f_save[4] f_save[5] f_save[6] f_save[7] f_save[8] 
7.45086 -5.59047e-05 0 0 -7.45086 0 0 0 
3.35535 -2.51757e-05 0 0 -3.35535 0 0 0 
0 0 0 0 0 0 0 0 
0.941272 -1.41348e-05 0.000282499 4.97567e-06 0 0.941272 0 103.111 
0.870955 -4.24637e-05 0.000261376 -1.16431e-05 0 0.870955 0 307.692 
1.00013 -2.51498e-05 -0.000300165 5.63946e-06 0 -1.00013 0 160.826 
0.969958 -3.32092e-05 -0.000291087 -2.34796e-06 0 -0.969958 0 208.134 
0 0 0 0 0 0 0 0 
0 0 0 0 0 0 0 0 
0 0 0 0 0 0 0 0 
0.292196 -4.06313e-05 -1.76083e-06 0.000170935 0 0 0.292196 156.487 
0.424324 -3.06731e-05 -5.40741e-06 0.00024823 0 0 0.424324 103.659 
0 0 0 0 0 0 0 0 
11.6286 -2.83447e-05 0 0 -11.6286 0 0 0 
0 0 0 0 0 0 0 0 
57.0749 -7.1344e-06 -1.24277e-06 2.13656e-07 -57.0749 0 0 77310.6 
0 0 0 0 0 0 0 0 
0 0 0 0 0 0 0 0 
6.10051 -1.487e-05 0 0 -6.10051 0 0 0 
23.385 -5.7001e-05 -8.97198e-08 -5.07387e-07 -23.385 0 0 4351.85 
0 0 0 0 0 0 0 0 
0 0 0 0 0 0 0 0 
5.35539 -1.27191e-05 0 0 -5.35539 0 0 0 
9.48152 -2.25187e-05 0 0 -9.48152 0 0 0 
0 0 0 0 0 0 0 0 
0 0 0 0 0 0 0 0 
0 0 0 0 0 0 0 0 
0 0 0 0 0 0 0 0 
22.7938 -5.55601e-05 0 0 -22.7938 0 0 0 
14.3218 -3.49095e-05 0 0 -14.3218 0 0 0 
0 0 0 0 0 0 0 0 
98.8259 -1.23533e-05 0 0 -98.8259 0 0 0 
6.82281 -1.62042e-05 8.98509e-07 -2.9433e-07 -6.82281 0 0 5427.89 
18.7388 -4.45046e-05 1.14037e-08 -9.7254e-07 -18.7388 0 0 3901.31 
17.0593 -4.05159e-05 -9.12777e-07 -1.32266e-06 -17.0593 0 0 8358.24 
0 0 0 0 0 0 0 0 
7.86971 -1.86906e-05 2.8768e-07 8.16346e-07 -7.86971 0 0 6581.07 
0 0 0 0 0 0 0 0 
19.1547 -4.54924e-05 0 0 -19.1547 0 0 0 
20.3545 -4.8342e-05 0 0 -20.3545 0 0 0 
9.68994 -2.30137e-05 0 0 -9.68994 0 0 0 
20.0168 -4.75399e-05 0 0 -20.0168 0 0 0 
14.9976 -3.56193e-05 -7.40196e-07 -1.18132e-06 -14.9976 0 0 5093.87 
22.6839 -5.38743e-05 2.63408e-06 9.49187e-07 -22.6839 0 0 2472.95 
8.69707 -2.06555e-05 -7.9298e-07 9.90732e-07 -8.69707 0 0 4797.4 
5.76306 -1.36873e-05 0 0 -5.76306 0 0 0 
11.8972 -2.89993e-05 -4.34764e-07 9.63215e-08 -11.8972 0 0 4454.15 
6.97858 -1.70103e-05 -5.72416e-07 -2.64427e-07 -6.97858 0 0 3278.91 
16.1994 -3.94862e-05 0 0 -16.1994 0 0 0 
7.01901 -1.71089e-05 0 0 -7.01901 0 0 0 
11.3794 -2.77372e-05 0 0 -11.3794 0 0 0 
12.117 -2.95352e-05 8.8758e-08 -1.37426e-07 -12.117 0 0 5638.07 
16.9568 -4.02722e-05 0 0 -16.9568 0 0 0 
5.4175 -1.28666e-05 0 0 -5.4175 0 0 0 
10.6889 -2.53863e-05 0 0 -10.6889 0 0 0 
0 0 0 0 0 0 0 0 
9.43825 -2.24159e-05 0 0 -9.43825 0 0 0 
0 0 0 0 0 0 0 0 
5.99078 -1.42281e-05 0 0 -5.99078 0 0 0 
21.243 -5.04521e-05 0 0 -21.243 0 0 0 
5.11033 -1.24565e-05 0 0 -5.11033 0 0 0 
9.54441 -2.32645e-05 3.58853e-07 -3.06204e-06 -9.54441 0 0 3655.37 
14.3981 -3.50954e-05 0 0 -14.3981 0 0 0 
11.4126 -2.78183e-05 0 0 -11.4126 0 0 0 
5.71487 -1.393e-05 0 0 -5.71487 0 0 0 
6.09279 -1.48512e-05 0 0 -6.09279 0 0 0 
10.5159 -2.56327e-05 0 0 -10.5159 0 0 0 
2.27471 -5.54463e-06 4.70965e-07 4.36538e-07 -2.27471 0 0 3120.93 
17.938 -4.26028e-05 1.17071e-06 1.52872e-07 -17.938 0 0 10213 
5.55056 -1.31826e-05 -1.05185e-06 -2.25378e-06 -5.55056 0 0 8341.95 
10.4942 -2.55797e-05 1.99384e-07 7.28815e-07 -10.4942 0 0 5354.06 
3.63569 -8.86205e-06 0 0 -3.63569 0 0 0 
1.70583 -4.05134e-06 1.56807e-07 -2.94239e-07 -1.70583 0 0 2788.01 
5.79422 -1.37613e-05 0 0 -5.79422 0 0 0 
10.9046 -2.658e-05 0 0 -10.9046 0 0 0 
6.71735 -1.63735e-05 -1.47803e-06 3.97433e-07 -6.71735 0 0 8384.53 
28.2694 -6.89068e-05 6.17535e-07 9.36428e-07 -28.2694 0 0 9592.7 
7.76899 -1.89369e-05 5.14831e-07 7.39624e-07 -7.76899 0 0 4238.61 
10.9342 -2.59687e-05 -1.3001e-07 -2.51769e-07 -10.9342 0 0 4248.42 
16.5326 -3.9265e-05 0 0 -16.5326 0 0 0 
0 0 0 0 0 0 0 0 
9.29783 -2.20824e-05 0 0 -9.29783 0 0 0 
11.2463 -2.671e-05 0 0 -11.2463 0 0 0 
7.12238 -1.69157e-05 -5.24504e-07 6.45304e-08 -7.12238 0 0 4912.2 
5.21436 -1.23841e-05 0 0 -5.21436 0 0 0 
8.6741 -2.0601e-05 1.42183e-07 -6.59696e-07 -8.6741 0 0 5229.94 
19.341 -4.59348e-05 0 0 -19.341 0 0 0 
5.70971 -1.35605e-05 0 0 -5.70971 0 0 0 
0 0 0 0 0 0 0 0 
10.3771 -2.52942e-05 0 0 -10.3771 0 0 0 
2.07241 -5.05153e-06 0 0 -2.07241 0 0 0 
20.7163 -5.04962e-05 0 0 -20.7163 0 0 0 
0 0 0 0 0 0 0 0 
4.3904 -1.04272e-05 5.68966e-07 3.97231e-07 -4.3904 0 0 4653.02 
15.7503 -3.83915e-05 0 0 -15.7503 0 0 0 
15.7107 -3.82948e-05 1.1852e-06 6.97145e-07 -15.7107 0 0 8742.1 
17.6015 -4.18037e-05 -6.16171e-08 -7.13994e-07 -17.6015 0 0 4332.57 
13.2743 -3.15266e-05 6.7013e-07 -3.06178e-07 -13.2743 0 0 2431.96 
0 0 0 0 0 0 0 0 
0 0 0 0 0 0 0 0 
11.6977 -2.7782e-05 -1.17117e-06 -5.46494e-07 -11.6977 0 0 930.937 
16.466 -3.91069e-05 2.87661e-06 2.46524e-07 -16.466 0 0 8860.95 
2.84482 -6.75646e-06 4.76005e-07 4.92534e-07 -2.84482 0 0 4387.42 
11.1575 -2.64991e-05 0 0 -11.1575 0 0 0 
0 0 0 0 0 0 0 0 
0 0 0 0 0 0 0 0 
10.1044 -2.39978e-05 2.04838e-06 1.62845e-07 -10.1044 0 0 8042.62 
0 0 0 0 0 0 0 0 
12.6346 -3.00073e-05 4.25943e-08 -6.56076e-07 -12.6346 0 0 5959.49 
3.39344 -8.05941e-06 -5.42043e-07 -8.72383e-07 -3.39344 0 0 5497.37 
0 0 0 0 0 0 0 0 
0 0 0 0 0 0 0 0 
23.1245 -5.49206e-05 0 0 -23.1245 0 0 0 
5.85601 -1.39081e-05 0 0 -5.85601 0 0 0 
0 0 0 0 0 0 0 0 
4.66484 -1.1079e-05 4.88062e-06 -6.12216e-07 -4.66484 0 0 2463.29 
0 0 0 0 0 0 0 0 
0 0 0 0 0 0 0 0 
12.1982 -2.89707e-05 7.13079e-07 3.11371e-06 -12.1982 0 0 2609.65 
13.829 -3.2844e-05 0 0 -13.829 0 0 0 
15.7233 -3.7343e-05 0 0 -15.7233 0 0 0 
6.11561 -1.45246e-05 -4.22235e-06 -1.54042e-06 -6.11561 0 0 3213.75 
0 0 0 0 0 0 0 0 
0 0 0 0 0 0 0 0 
2.90195 -6.89214e-06 -3.20218e-07 -9.56836e-07 -2.90195 0 0 4646.99 
3.98957 -9.47526e-06 0 0 -3.98957 0 0 0 
17.5879 -4.28705e-05 0 0 -17.5879 0 0 0 
11.4975 -2.80251e-05 0 0 -11.4975 0 0 0 
0 0 0 0 0 0 0 0 
0 0 0 0 0 0 0 0 
4.84342 -1.15031e-05 0 0 -4.84342 0 0 0 
13.5026 -3.20687e-05 2.39082e-06 -1.30163e-06 -13.5026 0 0 3811.97 
9.3862 -2.28789e-05 0 0 -9.3862 0 0 0 
14.6423 -3.56907e-05 0 0 -14.6423 0 0 0 
0 0 0 0 0 0 0 0 
0 0 0 0 0 0 0 0 
5.04178 -1.19743e-05 0 0 -5.04178 0 0 0 
5.86978 -1.39408e-05 0 0 -5.86978 0 0 0 
2.7255 -6.6434e-06 -5.18535e-07 2.48263e-07 -2.7255 0 0 4601.3 
21.4073 -5.21801e-05 0 0 -21.4073 0 0 0 
0 0 0 0 0 0 0 0 
0 0 0 0 0 0 0 0 
8.80593 -2.09141e-05 2.9637e-08 1.46766e-07 -8.80593 0 0 4723.59 
8.3279 -1.97788e-05 3.69101e-07 -1.14597e-07 -8.3279 0 0 3616.22 
0 0 0 0 0 0 0 0 
10.852 -2.64519e-05 -6.4663e-07 -1.42581e-06 -10.852 0 0 9385.93 
0 0 0 0 0 0 0 0 
0 0 0 0 0 0 0 0 
12.0636 -2.86511e-05 0 0 -12.0636 0 0 0 
5.51276 -1.30928e-05 0 0 -5.51276 0 0 0 
20.7821 -5.06564e-05 0 0 -20.7821 0 0 0 
20.8352 -5.07858e-05 4.35198e-07 -3.58083e-07 -20.8352 0 0 9965.19 
0 0 0 0 0 0 0 0 
0 0 0 0 0 0 0 0 
0 0 0 0 0 0 0 0 
4.97034 -1.18046e-05 0 0 -4.97034 0 0 0 
5.2708 -1.25182e-05 0 0 -5.2708 0 0 0 
10.5682 -2.50995e-05 0 0 -10.5682 0 0 0 
0 0 0 0 0 0 0 0 
0 0 0 0 0 0 0 0 
5.5277 -1.34737e-05 0 0 -5.5277 0 0 0 
15.6796 -3.82189e-05 0 0 -15.6796 0 0 0 
13.9328 -3.39612e-05 -2.85334e-07 7.54398e-07 -13.9328 0 0 4114.79 
0 0 0 0 0 0 0 0 
0 0 0 0 0 0 0 0 
0 0 0 0 0 0 0 0 
5.55092 -1.31835e-05 0 0 -5.55092 0 0 0 
11.9667 -2.8421e-05 -9.67933e-07 -1.72578e-06 -11.9667 0 0 1100.93 
9.12656 -2.16757e-05 1.67635e-06 2.74781e-06 -9.12656 0 0 5940.56 
7.9945 -1.8987e-05 0 0 -7.9945 0 0 0 
0 0 0 0 0 0 0 0 
103.673 -1.29591e-05 0 0 -103.673 0 0 0 
10.8562 -2.6462e-05 0 0 -10.8562 0 0 0 
0 0 0 0 0 0 0 0 
20.4503 -4.85694e-05 7.32593e-07 -1.63133e-06 -20.4503 0 0 7870.5 
9.92711 -2.35769e-05 0 0 -9.92711 0 0 0 
0 0 0 0 0 0 0 0 
0 0 0 0 0 0 0 0 
20.5742 -4.88637e-05 -4.42045e-07 7.6344e-08 -20.5742 0 0 4615.99 
0 0 0 0 0 0 0 0 
11.1128 -2.63931e-05 1.09797e-06 -7.75642e-08 -11.1128 0 0 5273.25 
8.99553 -2.13645e-05 8.30068e-07 -6.83399e-07 -8.99553 0 0 5341.73 
0 0 0 0 0 0 0 0 
0 0 0 0 0 0 0 0 
6.00632 -1.4265e-05 0 0 -6.00632 0 0 0 
22.6361 -5.37609e-05 0 0 -22.6361 0 0 0 
17.7548 -4.21676e-05 0 0 -17.7548 0 0 0 
5.80335 -1.37829e-05 0 0 -5.80335 0 0 0 
0 0 0 0 0 0 0 0 
0 0 0 0 0 0 0 0 
5.4274 -1.28901e-05 0 0 -5.4274 0 0 0 
3.21868 -7.6444e-06 3.90852e-07 2.43235e-07 -3.21868 0 0 5401.59 
0 0 0 0 0 0 0 0 
0 0 0 0 0 0 0 0 
27.8998 -6.62621e-05 0 0 -27.8998 0 0 0 
0 0 0 0 0 0 0 0 
0 0 0 0 0 0 0 0 
0 0 0 0 0 0 0 0 
8.58846 -2.09344e-05 0 0 -8.58846 0 0 0 
0 0 0 0 0 0 0 0 
15.4881 -3.67844e-05 0 0 -15.4881 0 0 0 
20.5932 -4.89089e-05 0 0 -20.5932 0 0 0 
102.044 -1.27555e-05 0 0 -102.044 0 0 0 
0 0 0 0 0 0 0 0 
0 0 0 0 0 0 0 0 
2.57164 -6.10763e-06 -1.19003e-06 -2.2722e-06 -2.57164 0 0 5124.69 
0 0 0 0 0 0 0 0 
0 0 0 0 0 0 0 0 
0 0 0 0 0 0 0 0 
0 0 0 0 0 0 0 0 
5.35073 -1.2708e-05 0 0 -5.35073 0 0 0 
11.914 -2.82957e-05 -7.71593e-07 1.17715e-06 -11.914 0 0 5829.88 
0 0 0 0 0 0 0 0 
0 0 0 0 0 0 0 0 
22.8056 -5.41633e-05 0 0 -22.8056 0 0 0 
14.1745 -3.36644e-05 4.13733e-07 2.98059e-08 -14.1745 0 0 5655.36 
3.58444 -8.51307e-06 0 0 -3.58444 0 0 0 
0 0 0 0 0 0 0 0 
0 0 0 0 0 0 0 0 
0 0 0 0 0 0 0 0 
9.15207 -2.17362e-05 -1.84614e-06 2.81026e-07 -9.15207 0 0 5584.51 
2.33928 -5.5558e-06 0 0 -2.33928 0 0 0 
0 0 0 0 0 0 0 0 
0 0 0 0 0 0 0 0 
0 0 0 0 0 0 0 0 
19.4404 -4.61711e-05 1.10288e-07 -1.73326e-07 -19.4404 0 0 4299.47 
17.3119 -4.11159e-05 -4.8557e-07 -1.29641e-08 -17.3119 0 0 4892.23 
11.7147 -2.78226e-05 -6.88714e-08 -9.98237e-07 -11.7147 0 0 12113.1 
0 0 0 0 0 0 0 0 
0 0 0 0 0 0 0 0 
17.0584 -4.05137e-05 0 0 -17.0584 0 0 0 
1.98398 -4.71196e-06 0 0 -1.98398 0 0 0 
11.6628 -2.76993e-05 0 0 -11.6628 0 0 0 
8.74676 -2.07736e-05 -8.07175e-07 4.59229e-07 -8.74676 0 0 4819.43 
0 0 0 0 0 0 0 0 
0 0 0 0 0 0 0 0 
9.06 -2.15175e-05 9.27229e-07 4.92286e-07 -9.06 0 0 4603.38 
0.88697 -2.10655e-06 -3.96273e-07 9.52533e-07 -0.88697 0 0 513.851 
0 0 0 0 0 0 0 0 
75.7582 -9.46979e-06 0 0 -75.7582 0 0 0 
16.573 -3.9361e-05 0 0 -16.573 0 0 0 
0 0 0 0 0 0 0 0 
3.79919 -9.26055e-06 0 0 -3.79919 0 0 0 
2.26568 -5.52261e-06 -1.31929e-06 1.36092e-06 -2.26568 0 0 3782.11 
0 0 0 0 0 0 0 0 
114.43 -1.43039e-05 0 0 -114.43 0 0 0 
5.80102 -1.37775e-05 -1.29438e-08 -4.3588e-08 -5.80102 0 0 1555.8 
0 0 0 0 0 0 0 0 
1.69982 -4.03708e-06 0 0 -1.69982 0 0 0 
20.7019 -4.91671e-05 0 0 -20.7019 0 0 0 
0 0 0 0 0 0 0 0 
0 0 0 0 0 0 0 0 
4.80356 -1.17087e-05 0 0 -4.80356 0 0 0 
8.53486 -2.08038e-05 0 0 -8.53486 0 0 0 
3.81201 -9.05357e-06 0 0 -3.81201 0 0 0 
3.28894 -7.81129e-06 1.27969e-06 3.54422e-07 -3.28894 0 0 5184.35 
0 0 0 0 0 0 0 0 
0 0 0 0 0 0 0 0 
14.0897 -3.34632e-05 -1.54958e-09 -9.35906e-07 -14.0897 0 0 6027.94 
5.384 -1.2787e-05 0 0 -5.384 0 0 0 
13.1717 -3.12826e-05 0 0 -13.1717 0 0 0 
5.65455 -1.34295e-05 0 0 -5.65455 0 0 0 
0 0 0 0 0 0 0 0 
0 0 0 0 0 0 0 0 
2.22144 -5.27593e-06 5.90205e-07 -6.2751e-07 -2.22144 0 0 3303.25 
13.3676 -3.17482e-05 -4.60076e-07 7.56653e-07 -13.3676 0 0 5036.34 
14.1482 -3.36021e-05 -7.5131e-07 -4.24357e-07 -14.1482 0 0 5643.23 
1.90353 -4.52091e-06 3.46614e-07 -4.01365e-07 -1.90353 0 0 3137.15 
0 0 0 0 0 0 0 0 
0 0 0 0 0 0 0 0 
8.37729 -1.98961e-05 0 0 -8.37729 0 0 0 
14.038 -3.33402e-05 -4.82332e-08 -5.72544e-07 -14.038 0 0 4649.62 
5.61111 -1.33265e-05 0 0 -5.61111 0 0 0 
5.56233 -1.32106e-05 0 0 -5.56233 0 0 0 
109.313 -1.36642e-05 0 0 -109.313 0 0 0 
0 0 0 0 0 0 0 0 
5.68745 -1.35077e-05 5.11173e-07 -3.57119e-07 -5.68745 0 0 4129.08 
5.52589 -1.3124e-05 0 0 -5.52589 0 0 0 
8.48079 -2.01419e-05 -4.70619e-07 2.48295e-07 -8.48079 0 0 3724.23 
14.0761 -3.34307e-05 -2.80589e-07 -6.0305e-07 -14.0761 0 0 3749.69 
0 0 0 0 0 0 0 0 
0 0 0 0 0 0 0 0 
5.54644 -1.31728e-05 0 0 -5.54644 0 0 0 
6.69278 -1.58954e-05 0 0 -6.69278 0 0 0 
5.3457 -1.2696e-05 0 0 -5.3457 0 0 0 
6.03221 -1.43265e-05 2.0118e-07 4.12411e-07 -6.03221 0 0 4977.82 
0 0 0 0 0 0 0 0 
0 0 0 0 0 0 0 0 
9.73798 -2.31277e-05 0 0 -9.73798 0 0 0 
21.0656 -5.0031e-05 0 0 -21.0656 0 0 0 
9.80313 -2.32825e-05 0 0 -9.80313 0 0 0 
10.4777 -2.48846e-05 0 0 -10.4777 0 0 0 
0 0 0 0 0 0 0 0 
0 0 0 0 0 0 0 0 
12.9774 -3.08213e-05 -2.85858e-07 5.96952e-07 -12.9774 0 0 3067.23 
7.8333 -1.8604e-05 3.97549e-07 4.08659e-07 -7.8333 0 0 2720.51 
0 0 0 0 0 0 0 0 
0 0 0 0 0 0 0 0 
14.692 -3.48936e-05 0 0 -14.692 0 0 0 
13.481 -3.20174e-05 0 0 -13.481 0 0 0 
0 0 0 0 0 0 0 0 
15.0308 -3.56983e-05 0 0 -15.0308 0 0 0 
64.2577 -8.03222e-06 -3.11788e-07 -5.52185e-07 -64.2577 0 0 104797 
0 0 0 0 0 0 0 0 
11.5363 -2.73986e-05 -3.31403e-07 -1.08618e-06 -11.5363 0 0 9424.67 
11.1238 -2.6419e-05 0 0 -11.1238 0 0 0 
0 0 0 0 0 0 0 0 
17.1474 -4.07251e-05 0 0 -17.1474 0 0 0 
0 0 0 0 0 0 0 0 
0 0 0 0 0 0 0 0 
3.8568 -9.15989e-06 0 0 -3.8568 0 0 0 
27.0314 -6.41994e-05 -7.85206e-08 3.19106e-07 -27.0314 0 0 6011.74 
6.01429 -1.4284e-05 0 0 -6.01429 0 0 0 
5.82957 -1.38452e-05 0 0 -5.82957 0 0 0 
0 0 0 0 0 0 0 0 
0 0 0 0 0 0 0 0 
19.5255 -4.63731e-05 0 0 -19.5255 0 0 0 
10.5892 -2.51493e-05 0 0 -10.5892 0 0 0 
0 0 0 0 0 0 0 0 
0 0 0 0 0 0 0 0 
5.25783 -1.24874e-05 0 0 -5.25783 0 0 0 
16.1245 -3.82958e-05 4.0376e-07 -6.8365e-07 -16.1245 0 0 5043.14 
0 0 0 0 0 0 0 0 
0 0 0 0 0 0 0 0 
11.9686 -2.84253e-05 0 0 -11.9686 0 0 0 
5.28192 -1.25446e-05 0 0 -5.28192 0 0 0 
0 0 0 0 0 0 0 0 
101.179 -1.26474e-05 0 0 -101.179 0 0 0 
3.32565 -7.8984e-06 3.55991e-07 5.52496e-07 -3.32565 0 0 5882.71 
14.0575 -3.33866e-05 -1.69506e-06 9.38846e-07 -14.0575 0 0 10383.5 
0 0 0 0 0 0 0 0 
0 0 0 0 0 0 0 0 
15.9571 -3.88957e-05 0 0 -15.9571 0 0 0 
0 0 0 0 0 0 0 0 
9.37592 -0.00462166 5.62236e-06 -1.05906e-05 -9.37592 0 0 2099.53 
7.20254 -0.000351124 1.81834e-06 2.75624e-06 -7.20254 0 0 276.626 
15.7239 -3.93098e-05 0 0 -15.7239 0 0 0 
8.37798 -0.000397954 -1.8801e-06 2.20713e-06 -8.37798 0 0 1788.23 
9.88152 -2.47039e-05 0 0 -9.88152 0 0 0 
8.3461 -0.00039644 4.61548e-06 -1.34383e-06 -8.3461 0 0 1523.74 
16.1319 -4.03299e-05 -5.66579e-08 -3.11837e-07 -16.1319 0 0 4066.25 
9.12131 -0.000433262 -1.39935e-06 -1.36983e-06 -9.12131 0 0 1760.47 
26.532 -6.63301e-05 5.97859e-07 -1.16325e-06 -26.532 0 0 9376.49 
9.05574 -0.000430148 5.32748e-06 -9.84256e-06 -9.05574 0 0 2023.94 
4.09514 -1.02379e-05 1.979e-07 9.59249e-08 -4.09514 0 0 2970.76 
12.4135 -0.000589639 3.98096e-06 3.8813e-07 -12.4135 0 0 3553.94 
6.08931 -1.52233e-05 0 0 -6.08931 0 0 0 
8.51272 -0.000404354 -4.23296e-07 -2.47612e-07 -8.51272 0 0 709.959 
30.2817 -7.57046e-05 1.51146e-06 -3.07767e-06 -30.2817 0 0 6469.16 
7.62823 -0.000371876 7.05262e-06 -2.76639e-06 -7.62823 0 0 2031.42 
9.09017 -0.00396659 -1.26111e-06 1.03119e-06 -9.09017 0 0 1702.14 
7.2312 -0.000504093 -5.45417e-06 3.10282e-06 -7.2312 0 0 1620.2 
11.3038 -0.000972127 -2.78716e-06 8.87786e-07 -11.3038 0 0 2375.93 
10.668 -0.000917444 -7.88443e-07 -3.18352e-06 -10.668 0 0 2407.67 
9.78705 -0.000477119 -2.73659e-06 4.69649e-07 -9.78705 0 0 1237.68 
14.9353 -3.73384e-05 0 0 -14.9353 0 0 0 
12.4933 -0.000593432 -5.94613e-07 -4.88546e-06 -12.4933 0 0 2770.36 
4.71388 -1.17847e-05 -4.15183e-07 1.38422e-07 -4.71388 0 0 4194.5 
9.76765 -0.000463963 1.98356e-07 5.43705e-06 -9.76765 0 0 1633.29 
2.871 -7.17751e-06 4.19e-07 -4.9936e-07 -2.871 0 0 2861.44 
12.7741 -0.000606771 -1.17921e-06 -3.21764e-06 -12.7741 0 0 2004.25 
20.1776 -5.04441e-05 0 0 -20.1776 0 0 0 
8.70044 -0.000413271 3.52068e-06 -2.65319e-06 -8.70044 0 0 1668.72 
7.07267 -1.76817e-05 -3.78055e-07 1.96291e-07 -7.07267 0 0 4102.34 
13.156 -0.00062491 2.46068e-06 -3.54255e-06 -13.156 0 0 2484.72 
7.26886 -1.81721e-05 4.19309e-07 5.03338e-07 -7.26886 0 0 3486.16 
7.02884 -0.00033387 -1.91014e-06 3.483e-06 -7.02884 0 0 2118.63 
4.47141 -1.11786e-05 0 0 -4.47141 0 0 3.94302e-12 
8.68026 -0.000423163 3.47858e-06 2.97179e-06 -8.68026 0 0 2061.64 
8.34963 -0.000407044 4.47496e-06 -1.5824e-06 -8.34963 0 0 1962.34 
10.0038 -0.00493114 1.13729e-06 2.68757e-06 -10.0038 0 0 2247.26 
10.9504 -0.000941735 4.44043e-06 4.84119e-06 -10.9504 0 0 2363.3 
10.8348 -0.000931791 1.55164e-06 8.02086e-07 -10.8348 0 0 2067.03 
8.54003 -0.000112234 9.65196e-07 1.09274e-07 -8.54003 0 0 2543.19 
8.63499 -0.000420956 6.25687e-07 -1.43824e-06 -8.63499 0 0 1550.43 
0 0 0 0 0 0 0 0 
9.73703 -0.000462509 -2.78514e-06 -3.43542e-07 -9.73703 0 0 2706.78 
12.1563 -3.03907e-05 -5.68835e-07 8.30795e-08 -12.1563 0 0 4511.26 
9.09764 -0.000432138 -1.01518e-06 3.78952e-06 -9.09764 0 0 2851.29 
0 0 0 0 0 0 0 0 
9.10637 -0.000432552 -1.47953e-06 -1.38675e-06 -9.10637 0 0 1220.37 
5.87152 -1.46788e-05 0 0 -5.87152 0 0 0 
10.9776 -0.000521436 -1.49391e-06 1.20262e-06 -10.9776 0 0 832.494 
7.39263 -1.84816e-05 -1.16473e-06 1.21228e-06 -7.39263 0 0 3755.61 
10.7671 -0.000511439 -1.79136e-06 -2.87428e-07 -10.7671 0 0 2625.36 
2.94903 -7.37255e-06 0 0 -2.94903 0 0 0 
10.1426 -0.000481772 -4.76643e-07 -4.28334e-06 -10.1426 0 0 1878.66 
5.25631 -1.31408e-05 0 0 -5.25631 0 0 0 
5.92014 -0.000288607 -3.36864e-06 1.60925e-06 -5.92014 0 0 732.396 
9.31258 -0.00459044 5.577e-06 5.71364e-06 -9.31258 0 0 1824.37 
10.4678 -2.61695e-05 0 0 -10.4678 0 0 0 
10.3983 -0.000493921 -4.81514e-07 6.40213e-08 -10.3983 0 0 1592.04 
5.10217 -1.27554e-05 0 0 -5.10217 0 0 0 
8.63901 -0.000410353 -5.14895e-06 9.26373e-07 -8.63901 0 0 1093.3 
22.0869 -5.52175e-05 3.74787e-07 2.42955e-07 -22.0869 0 0 6947.74 
9.75896 -0.000463551 3.53224e-06 -9.57233e-07 -9.75896 0 0 1883.43 
5.07481 -1.2687e-05 0 0 -5.07481 0 0 0 
11.3404 -0.000538668 -1.27825e-06 -1.86481e-06 -11.3404 0 0 2888.47 
13.829 -3.45725e-05 0 0 -13.829 0 0 0 
6.60041 -0.000313519 1.64385e-06 1.49534e-06 -6.60041 0 0 1294.12 
14.8238 -3.70595e-05 -9.18068e-07 -2.42941e-07 -14.8238 0 0 9052.03 
9.52893 -0.000452624 2.51783e-06 -1.27008e-07 -9.52893 0 0 1402.63 
14.0806 -3.52018e-05 0 0 -14.0806 0 0 1.28148e-11 
9.48204 -0.000462249 5.40104e-06 1.34679e-06 -9.48204 0 0 3421.87 
0.261278 -3.67007e-05 0.000152848 -1.68283e-06 0 0.261278 0 105.534 
0.493666 -6.67405e-06 0.000144397 -2.18039e-06 0 0.493666 0 63.4784 
0.559555 -3.1659e-05 0.00016367 -2.48294e-07 0 0.559555 0 156.957 
0 0 0 0 0 0 0 0 
0 0 0 0 0 0 0 0 
1.27988 3.03972e-06 0 0 1.27988 0 0 0 
0 0 0 0 0 0 0 0 
0 0 0 0 0 0 0 0 
0 0 0 0 0 0 0 0 
0 0 0 0 0 0 0 0 
0.768222 1.82454e-06 -1.47492e-06 3.24359e-06 0.768222 0 0 1331.33 
0.595895 1.41526e-06 0 0 0.595895 0 0 0 
0 0 0 0 0 0 0 0 
0.974525 2.31449e-06 4.43943e-07 -2.70203e-07 0.974525 0 0 698.927 
0 0 0 0 0 0 0 0 
0 0 0 0 0 0 0 0 
0.846194 2.00972e-06 0 0 0.846194 0 0 0 
0 0 0 0 0 0 0 0 
0 0 0 0 0 0 0 0 
0 0 0 0 0 0 0 0 
0 0 0 0 0 0 0 0 
0 0 0 0 0 0 0 0 
0 0 0 0 0 0 0 0 
0 0 0 0 0 0 0 0 
0.545268 1.29501e-06 0 0 0.545268 0 0 0 
0 0 0 0 0 0 0 0 
0 0 0 0 0 0 0 0 
0 0 0 0 0 0 0 0 
2.85027 6.76941e-06 -2.12859e-07 -4.83294e-07 2.85027 0 0 4080.26 
0 0 0 0 0 0 0 0 
0 0 0 0 0 0 0 0 
0.79067 1.87784e-06 0 0 0.79067 0 0 0 
0 0 0 0 0 0 0 0 
0 0 0 0 0 0 0 0 
0.854311 2.02899e-06 0 0 0.854311 0 0 0 
0 0 0 0 0 0 0 0 
0.0486563 1.15559e-07 0 0 0.0486563 0 0 0 
0 0 0 0 0 0 0 0 
4.44533 1.13911e-05 0 0 4.44533 0 0 0 
0 0 0 0 0 0 0 0 
0 0 0 0 0 0 0 0 
0 0 0 0 0 0 0 0 
1.84273 4.37648e-06 0 0 1.84273 0 0 0 
0 0 0 0 0 0 0 0 
0 0 0 0 0 0 0 0 
0 0 0 0 0 0 0 0 
0 0 0 0 0 0 0 0 
0 0 0 0 0 0 0 0 
0 0 0 0 0 0 0 0 
0 0 0 0 0 0 0 0 
0 0 0 0 0 0 0 0 
0 0 0 0 0 0 0 0 
0 0 0 0 0 0 0 0 
5.39408 1.2811e-05 0 0 5.39408 0 0 0 
0 0 0 0 0 0 0 0 
1.40901 3.34641e-06 0 0 1.40901 0 0 0 
0 0 0 0 0 0 0 0 
0 0 0 0 0 0 0 0 
0 0 0 0 0 0 0 0 
0 0 0 0 0 0 0 0 
2.25343 5.35192e-06 0 0 2.25343 0 0 0 
0 0 0 0 0 0 0 0 
0 0 0 0 0 0 0 0 
0 0 0 0 0 0 0 0 
0 0 0 0 0 0 0 0 
0 0 0 0 0 0 0 0 
0 0 0 0 0 0 0 0 
0 0 0 0 0 0 0 0 
0.80181 1.90429e-06 0 0 0.80181 0 0 0 
0 0 0 0 0 0 0 0 
0.402411 9.55726e-07 0 0 0.402411 0 0 0 
0 0 0 0 0 0 0 0 
0 0 0 0 0 0 0 0 
0 0 0 0 0 0 0 0 
0 0 0 0 0 0 0 0 
0.596022 1.41555e-06 0 0 0.596022 0 0 0 
0.602784 1.43161e-06 0 0 0.602784 0 0 0 
1.06092 2.5197e-06 0 0 1.06092 0 0 0 
0 0 0 0 0 0 0 0 
0 0 0 0 0 0 0 0 
0 0 0 0 0 0 0 0 
0 0 0 0 0 0 0 0 
0 0 0 0 0 0 0 0 
2.25909 5.36534e-06 2.60563e-08 -1.38086e-06 2.25909 0 0 716.342 
0 0 0 0 0 0 0 0 
15.8387 1.97984e-06 0 0 15.8387 0 0 0 
0 0 0 0 0 0 0 0 
0 0 0 0 0 0 0 0 
4.57669 1.08697e-05 0 0 4.57669 0 0 0 
0 0 0 0 0 0 0 0 
0 0 0 0 0 0 0 0 
0 0 0 0 0 0 0 0 
0 0 0 0 0 0 0 0 
0 0 0 0 0 0 0 0 
1.78157 4.23124e-06 0 0 1.78157 0 0 0 
0 0 0 0 0 0 0 0 
0 0 0 0 0 0 0 0 
0 0 0 0 0 0 0 0 
2.85917 6.79054e-06 0 0 2.85917 0 0 0 
0 0 0 0 0 0 0 0 
0 0 0 0 0 0 0 0 
0 0 0 0 0 0 0 0 
0 0 0 0 0 0 0 0 
0 0 0 0 0 0 0 0 
1.06878 2.53835e-06 0 0 1.06878 0 0 0 
0 0 0 0 0 0 0 0 
0 0 0 0 0 0 0 0 
1.28263 3.04625e-06 -1.65828e-06 1.71521e-06 1.28263 0 0 1809.59 
0 0 0 0 0 0 0 0 
0 0 0 0 0 0 0 0 
0 0 0 0 0 0 0 0 
1.38926 3.29949e-06 -1.3377e-06 5.68149e-07 1.38926 0 0 495.428 
0 0 0 0 0 0 0 0 
0 0 0 0 0 0 0 0 
0 0 0 0 0 0 0 0 
0 0 0 0 0 0 0 0 
0 0 0 0 0 0 0 0 
0 0 0 0 0 0 0 0 
0 0 0 0 0 0 0 0 
0 0 0 0 0 0 0 0 
0 0 0 0 0 0 0 0 
3.21514 7.63597e-06 0 0 3.21514 0 0 0 
0 0 0 0 0 0 0 0 
0 0 0 0 0 0 0 0 
0 0 0 0 0 0 0 0 
0 0 0 0 0 0 0 0 
0 0 0 0 0 0 0 0 
0 0 0 0 0 0 0 0 
0 0 0 0 0 0 0 0 
0.395905 9.40276e-07 4.10175e-07 -9.80008e-07 0.395905 0 0 29.1512 
0 0 0 0 0 0 0 0 
0 0 0 0 0 0 0 0 
0 0 0 0 0 0 0 0 
0 0 0 0 0 0 0 0 
0 0 0 0 0 0 0 0 
0 0 0 0 0 0 0 0 
0 0 0 0 0 0 0 0 
6.11157 1.4515e-05 0 0 6.11157 0 0 0 
0 0 0 0 0 0 0 0 
0 0 0 0 0 0 0 0 
0 0 0 0 0 0 0 0 
0 0 0 0 0 0 0 0 
5.26937 1.25147e-05 0 0 5.26937 0 0 0 
0 0 0 0 0 0 0 0 
0 0 0 0 0 0 0 0 
0 0 0 0 0 0 0 0 
0 0 0 0 0 0 0 0 
0 0 0 0 0 0 0 0 
0 0 0 0 0 0 0 0 
0 0 0 0 0 0 0 0 
0 0 0 0 0 0 0 0 
0 0 0 0 0 0 0 0 
0 0 0 0 0 0 0 0 
0 0 0 0 0 0 0 0 
0 0 0 0 0 0 0 0 
0 0 0 0 0 0 0 0 
0 0 0 0 0 0 0 0 
0 0 0 0 0 0 0 0 
0 0 0 0 0 0 0 0 
0 0 0 0 0 0 0 0 
1.48261 3.52121e-06 0 0 1.48261 0 0 0 
0 0 0 0 0 0 0 0 
0.664782 1.57886e-06 0 0 0.664782 0 0 0 
0 0 0 0 0 0 0 0 
0 0 0 0 0 0 0 0 
0 0 0 0 0 0 0 0 
1.07422 2.55127e-06 0 0 1.07422 0 0 0 
0 0 0 0 0 0 0 0 
1.33311 3.16615e-06 0 0 1.33311 0 0 0 
0 0 0 0 0 0 0 0 
0 0 0 0 0 0 0 0 
0 0 0 0 0 0 0 0 
0 0 0 0 0 0 0 0 
0.40775 9.68407e-07 0 0 0.40775 0 0 0 
0 0 0 0 0 0 0 0 
0 0 0 0 0 0 0 0 
0 0 0 0 0 0 0 0 
0 0 0 0 0 0 0 0 
0 0 0 0 0 0 0 0 
0.190416 4.52236e-07 4.50082e-10 -5.76895e-07 0.190416 0 0 150.48 
0 0 0 0 0 0 0 0 
0 0 0 0 0 0 0 0 
0 0 0 0 0 0 0 0 
0 0 0 0 0 0 0 0 
0.852269 2.02414e-06 0 0 0.852269 0 0 0 
0 0 0 0 0 0 0 0 
0 0 0 0 0 0 0 0 
0 0 0 0 0 0 0 0 
0.634991 1.5081e-06 7.69385e-07 -1.27403e-06 0.634991 0 0 54.6879 
2.46939 5.8648e-06 0 0 2.46939 0 0 0 
0 0 0 0 0 0 0 0 
0 0 0 0 0 0 0 0 
0 0 0 0 0 0 0 0 
0 0 0 0 0 0 0 0 
0 0 0 0 0 0 0 0 
0 0 0 0 0 0 0 0 
0 0 0 0 0 0 0 0 
2.21842 5.40741e-06 0 0 2.21842 0 0 0 
0 0 0 0 0 0 0 0 
0 0 0 0 0 0 0 0 
0 0 0 0 0 0 0 0 
0 0 0 0 0 0 0 0 
0.639676 1.51924e-06 0 0 0.639676 0 0 0 
0 0 0 0 0 0 0 0 
0 0 0 0 0 0 0 0 
0 0 0 0 0 0 0 0 
0 0 0 0 0 0 0 0 
0 0 0 0 0 0 0 0 
0 0 0 0 0 0 0 0 
0 0 0 0 0 0 0 0 
0 0 0 0 0 0 0 0 
0 0 0 0 0 0 0 0 
0 0 0 0 0 0 0 0 
0 0 0 0 0 0 0 0 
0 0 0 0 0 0 0 0 
0 0 0 0 0 0 0 0 
0.601301 1.46567e-06 -9.54468e-07 3.07769e-07 0.601301 0 0 60.8937 
0 0 0 0 0 0 0 0 
0 0 0 0 0 0 0 0 
0 0 0 0 0 0 0 0 
0 0 0 0 0 0 0 0 
0 0 0 0 0 0 0 0 
0.760277 1.85317e-06 -7.38412e-07 4.80464e-07 0.760277 0 0 243.761 
0 0 0 0 0 0 0 0 
0 0 0 0 0 0 0 0 
0.607283 1.4423e-06 1.33687e-06 -2.09963e-07 0.607283 0 0 1884.6 
0 0 0 0 0 0 0 0 
0.641756 1.56429e-06 0 0 0.641756 0 0 0 
0 0 0 0 0 0 0 0 
0 0 0 0 0 0 0 0 
2.68859 6.55346e-06 0 0 2.68859 0 0 0 
0.931862 2.27142e-06 0 0 0.931862 0 0 0 
0 0 0 0 0 0 0 0 
2.55586 6.0702e-06 0 0 2.55586 0 0 0 
2.13456 5.06961e-06 0 0 2.13456 0 0 0 
1.14021 2.77926e-06 0 0 1.14021 0 0 0 
0 0 0 0 0 0 0 0 
0 0 0 0 0 0 0 0 
1.70581 4.05133e-06 0 0 1.70581 0 0 0 
0 0 0 0 0 0 0 0 
0 0 0 0 0 0 0 0 
0 0 0 0 0 0 0 0 
0 0 0 0 0 0 0 0 
0.241925 5.89694e-07 0 0 0.241925 0 0 0 
0 0 0 0 0 0 0 0 
0.207341 4.92436e-07 0 0 0.207341 0 0 0 
0 0 0 0 0 0 0 0 
0 0 0 0 0 0 0 0 
0 0 0 0 0 0 0 0 
0 0 0 0 0 0 0 0 
5.67506 1.34783e-05 0 0 5.67506 0 0 0 
0 0 0 0 0 0 0 0 
0 0 0 0 0 0 0 0 
0 0 0 0 0 0 0 0 
0 0 0 0 0 0 0 0 
0 0 0 0 0 0 0 0 
0 0 0 0 0 0 0 0 
0 0 0 0 0 0 0 0 
0 0 0 0 0 0 0 0 
0 0 0 0 0 0 0 0 
0 0 0 0 0 0 0 0 
0.992863 2.42011e-06 0 0 0.992863 0 0 0 
1.60724 3.91765e-06 0 0 1.60724 0 0 0 
0 0 0 0 0 0 0 0 
0 0 0 0 0 0 0 0 
0 0 0 0 0 0 0 0 
0.369339 8.77181e-07 0 0 0.369339 0 0 0 
0 0 0 0 0 0 0 0 
0 0 0 0 0 0 0 0 
11.2472 1.4059e-06 -1.59644e-07 1.94061e-06 11.2472 0 0 18201.2 
0 0 0 0 0 0 0 0 
0 0 0 0 0 0 0 0 
0 0 0 0 0 0 0 0 
0 0 0 0 0 0 0 0 
0 0 0 0 0 0 0 0 
0 0 0 0 0 0 0 0 
0 0 0 0 0 0 0 0 
0 0 0 0 0 0 0 0 
0 0 0 0 0 0 0 0 
0.293067 7.14348e-07 0 0 0.293067 0 0 0 
0 0 0 0 0 0 0 0 
0 0 0 0 0 0 0 0 
0 0 0 0 0 0 0 0 
0 0 0 0 0 0 0 0 
0 0 0 0 0 0 0 0 
0.273271 6.66101e-07 0 0 0.273271 0 0 0 
0 0 0 0 0 0 0 0 
0 0 0 0 0 0 0 0 
0 0 0 0 0 0 0 0 
0 0 0 0 0 0 0 0 
0 0 0 0 0 0 0 0 
0 0 0 0 0 0 0 0 
1.61838 3.84368e-06 0 0 1.61838 0 0 0 
1.02442 2.49702e-06 0 0 1.02442 0 0 0 
0 0 0 0 0 0 0 0 
1.48513 3.52719e-06 2.32248e-06 6.24462e-07 1.48513 0 0 1678.43 
0 0 0 0 0 0 0 0 
0.164254 4.0037e-07 0 0 0.164254 0 0 0 
0 0 0 0 0 0 0 0 
0.296797 7.04896e-07 0 0 0.296797 0 0 0 
1.95231 4.63675e-06 0 0 1.95231 0 0 0 
0 0 0 0 0 0 0 0 
0 0 0 0 0 0 0 0 
0 0 0 0 0 0 0 0 
0 0 0 0 0 0 0 0 
1.28034 3.12085e-06 0 0 1.28034 0 0 0 
0 0 0 0 0 0 0 0 
0.644092 1.52972e-06 0 0 0.644092 0 0 0 
0.926899 2.20139e-06 0 0 0.926899 0 0 0 
0 0 0 0 0 0 0 0 
0 0 0 0 0 0 0 0 
0 0 0 0 0 0 0 0 
0 0 0 0 0 0 0 0 
0 0 0 0 0 0 0 0 
0 0 0 0 0 0 0 0 
0 0 0 0 0 0 0 0 
1.1418 2.78315e-06 0 0 1.1418 0 0 0 
0 0 0 0 0 0 0 0 
0 0 0 0 0 0 0 0 
0 0 0 0 0 0 0 0 
0.464068 1.13117e-06 0 0 0.464068 0 0 0 
0 0 0 0 0 0 0 0 
6.37657 1.55429e-05 0 0 6.37657 0 0 0 
0 0 0 0 0 0 0 0 
0 0 0 0 0 0 0 0 
0 0 0 0 0 0 0 0 
1.45153 3.53811e-06 0 0 1.45153 0 0 0 
0 0 0 0 0 0 0 0 
0 0 0 0 0 0 0 0 
0.300791 -2.78538e-05 -0.000175963 5.09872e-06 0 -0.300791 0 105.648 
0.491258 -1.16008e-05 -0.000287386 -2.14766e-06 0 -0.491258 0 60.5564 
2.38795 -0.000315999 0.000276337 -0.000284535 -1.19397 1.46231 -1.46231 760.021 
2.60422 -0.000372551 0.000296036 -0.000292836 -1.30211 1.59474 -1.59476 1101.02 
0.0572921 -0.000474016 0.000509137 0.000536063 0 0.0405116 0.0405116 65.1698 
0.0604476 -0.00102994 0.00121951 0.00122966 1.43392e-09 0.0427429 0.0427429 66.5646 
0.0504981 -0.000209482 0.000214447 0.000228475 0 0.0357076 0.0357076 66.1357 
0.0649317 -0.000451264 0.000960201 -3.43653e-06 0 0.0649317 0 57.7215 
0.0506378 -0.00037548 0.000748825 -3.81597e-06 0 0.0506378 0 47.1577 
0.0595152 -0.000381847 -1.73534e-05 0.000880103 0 0 0.0595152 47.2547 
0.0572635 -0.000500881 -5.28184e-06 0.000846805 0 0 0.0572635 64.4414 
0.0648643 -0.000995053 0.00129189 0.00133624 0 0.045866 0.045866 62.1917 
0.0627808 -0.000373148 0.000580217 0.000565116 -9.16507e-10 0.0443927 0.0443927 55.8889 
0.044197 -0.00018917 0.000195177 0.000192477 0 0.031252 0.031252 56.4148 
2.27548 -0.000308513 -0.000264424 0.000263991 -1.13774 -1.39344 1.39344 882.782 
2.39872 -0.000336763 -0.000272749 0.000274873 -1.19936 -1.4689 1.46892 1024.51 
0.0593456 -0.000986336 -0.00119459 -0.00120993 0 -0.0419637 -0.0419637 61.8054 
0.05914 -0.000416696 -0.000526506 -0.000552407 3.11576e-09 -0.0418183 -0.0418183 60.0062 
0.0507207 -0.000147837 -0.000214964 -0.00022991 0 -0.0358649 -0.0358649 42.2226 
0.0706015 -0.000425981 -0.00104405 2.00588e-06 0 -0.0706015 0 52.984 
0.0582821 -0.000494856 -0.000861869 -4.52927e-07 0 -0.0582821 0 60.8563 
0.0672138 -0.000511654 6.87947e-06 -0.000993949 0 0 -0.0672138 66.0415 
0.0610296 -0.00046375 1.53946e-05 -0.000902498 0 0 -0.0610296 58.4006 
0.067169 -0.000348986 -0.000619246 -0.000606142 0 -0.0474957 -0.0474957 49.171 
0.0601179 -0.000928809 -0.0012269 -0.00120891 -3.95164e-10 -0.0425097 -0.0425098 59.5688 
0.0603036 -0.000220563 -0.00026468 -0.000264246 0 -0.0426411 -0.0426411 64.5095 
0.385368 -3.43376e-05 1.01874e-06 -0.00022544 0 0 -0.385368 120.117 
0.556591 -3.58793e-05 -1.46749e-06 -0.000325606 0 0 -0.556591 140.495 
0.327718 -2.14235e-05 -0.0001868 3.63133e-06 0 -0.327718 0 95.4574 
0.568396 -5.59431e-05 -0.000323986 5.06319e-06 0 -0.568396 0 178.589 
0.436352 -3.34468e-05 -7.33755e-06 0.000255266 0 0 0.436352 125.816 
0.489682 -2.53654e-05 -4.87743e-06 0.000286464 0 0 0.489682 113.174 
0.545228 -2.52493e-05 0.00031078 6.95438e-06 0 0.545228 0 120.647 
0.337998 -2.32253e-05 0.000192659 -4.69923e-06 0 0.337998 0 85.2049 
0.236401 -1.81784e-05 0.000134748 8.62559e-07 0 0.236401 0 78.3069 
0.310699 -3.17699e-05 0.000177099 5.70939e-06 0 0.310699 0 99.0644 
0.282109 -1.32862e-05 -3.63787e-06 -0.000160802 0 0 -0.282109 58.3192 
0.22175 -1.81533e-05 2.45214e-06 -0.000126397 0 0 -0.22175 65.4897 
0.215861 -2.70037e-05 -0.000123041 9.19947e-06 0 -0.215861 0 87.6897 
0.304012 -2.11184e-05 -0.000173287 -2.14434e-06 0 -0.304012 0 108.391 
0.259055 -1.31484e-05 -7.1415e-06 0.000147661 0 -5.07911e-08 0.259055 51.3085 
0.216421 -3.60238e-05 6.14989e-06 0.00012336 0 -4.24323e-08 0.216421 121.984 
0.343076 -2.49039e-05 0.000195553 3.00849e-06 0 0.343076 0 72.3876 
0.390092 -2.15321e-05 0.000222352 7.71858e-06 0 0.390092 0 111.456 
0.383374 -4.65395e-05 6.15035e-06 -0.000218523 0 0 -0.383374 164.229 
0.393978 -7.973e-06 -2.94926e-06 -0.000224567 0 0 -0.393978 38.0386 
0.346722 -1.2008e-05 -0.000197631 6.14584e-06 0 -0.346722 0 130.536 
0.414246 -5.32832e-05 -0.00023612 -1.1805e-05 0 -0.414246 0 174.195 
0.375155 -1.24673e-05 3.88388e-06 0.000213839 0 0 0.375155 46.6765 
0.379547 -1.85519e-05 -3.94183e-06 0.000216342 0 0 0.379547 77.8237 
0.375737 -2.76379e-05 -0.00021417 -3.16894e-07 0 -0.375737 0 102.504 
0.581084 -4.84608e-05 -0.000331218 -9.94627e-06 0 -0.581084 0 185.67 
0.444549 -3.55601e-05 -2.50358e-06 0.000253393 0 0 0.444549 126.032 
0.570735 -2.89066e-05 -1.14931e-06 0.000325319 0 0 0.570735 118.253 
0.412546 -1.62268e-05 0.000235151 -1.87589e-06 0 0.412546 0 52.4865 
0.514388 -3.14173e-05 0.000293201 -4.01577e-06 0 0.514388 0 136.268 
0.38062 -2.24785e-05 7.60742e-06 -0.000216954 0 0 -0.38062 96.7512 
0.627373 -4.48533e-05 -1.08245e-06 -0.000357603 0 0 -0.627373 142.093 
0.619876 -6.0102e-05 0.00035333 -6.12652e-06 0 0.619876 0 189.629 
0.675015 -2.02626e-05 0.000384759 -3.63326e-07 0 0.675015 0 56.2782 
0.543979 -5.43576e-05 1.70304e-05 -0.000310068 0 0 -0.543979 186.869 
0.540214 -2.76785e-05 7.23432e-06 -0.000307922 0 0 -0.540214 107.191 
0.600542 -2.62304e-05 -0.000342309 -2.10927e-06 0 -0.600542 0 101.638 