ITEM: TIMESTEP
100
ITEM: NUMBER OF SURFS
6916
ITEM: BOX BOUNDS oo rr rr
-20 20
-20 20
-20 20
ITEM: SURFS f_save[1] f_save[2] f_save[3] f_save[4] f_save[5] f_save[6] f_save[7] f_save[8] 
7.82607e-19 -5.872e-20 0 0 -7.82607e-19 0 0 0 
2.26083e-20 0 0 -6.78481e-20 0 0 -2.26083e-20 0 
0 0 0 0 0 0 0 0 
1.35535e-18 -3.30367e-20 0 0 -1.35535e-18 0 0 1.25788e-30 
1.35052e-18 -1.68815e-21 0 0 -1.35052e-18 0 0 0 
1.25212e-18 -1.56515e-21 0 0 -1.25212e-18 0 0 0 
1.14993e-18 -1.43741e-21 0 0 -1.14993e-18 0 0 0 
1.2853e-18 -3.13291e-20 0 0 -1.2853e-18 0 0 1.18316e-30 
1.22318e-18 -2.90506e-20 0 0 -1.22318e-18 0 0 0 
1.37358e-18 -3.26226e-20 0 0 -1.37358e-18 0 0 0 
1.38185e-18 -3.2819e-20 0 0 -1.38185e-18 0 0 0 
1.38475e-18 -3.28879e-20 0 0 -1.38475e-18 0 0 0 
1.42433e-18 -3.47181e-20 0 0 -1.42433e-18 0 0 0 
1.3756e-18 -3.26705e-20 0 0 -1.3756e-18 0 0 0 
1.33195e-18 -3.16338e-20 0 0 -1.33195e-18 0 0 0 
1.33702e-18 -3.25901e-20 0 0 -1.33702e-18 0 0 0 
1.32167e-18 -3.22156e-20 0 0 -1.32167e-18 0 0 1.2206e-30 
1.38567e-18 -3.29098e-20 0 0 -1.38567e-18 0 0 1.28196e-30 
1.36086e-18 -3.23204e-20 0 0 -1.36086e-18 0 0 0 
1.35797e-18 -3.31005e-20 0 0 -1.35797e-18 0 0 1.25699e-30 
1.31161e-18 -3.11506e-20 0 0 -1.31161e-18 0 0 0 
1.32211e-18 -3.14001e-20 0 0 -1.32211e-18 0 0 0 
1.35963e-18 -3.3141e-20 0 0 -1.35963e-18 0 0 0 
1.34758e-18 -3.2005e-20 0 0 -1.34758e-18 0 0 0 
1.41178e-18 -3.35297e-20 0 0 -1.41178e-18 0 0 0 
1.3463e-18 -3.19747e-20 0 0 -1.3463e-18 0 0 0 
1.27959e-18 -1.59949e-21 0 0 -1.27959e-18 0 0 0 
1.28201e-18 -3.04477e-20 0 0 -1.28201e-18 0 0 0 
1.34602e-18 -3.1968e-20 0 0 -1.34602e-18 0 0 0 
1.21832e-18 -1.5229e-21 0 0 -1.21832e-18 0 0 0 
1.20912e-18 -2.87165e-20 0 0 -1.20912e-18 0 0 0 
1.37014e-18 -3.25409e-20 0 0 -1.37014e-18 0 0 0 
1.92376e-18 -2.40471e-21 0 0 -1.92376e-18 0 0 0 
1.32587e-18 -3.2318e-20 0 0 -1.32587e-18 0 0 1.21907e-30 
1.37195e-18 -3.25838e-20 0 0 -1.37195e-18 0 0 0 
1.65123e-18 -2.06405e-21 0 0 -1.65123e-18 0 0 0 
1.34473e-18 -3.27779e-20 0 0 -1.34473e-18 0 0 1.23783e-30 
1.33316e-18 -3.16627e-20 0 0 -1.33316e-18 0 0 0 
1.45976e-18 -1.82471e-21 0 0 -1.45976e-18 0 0 0 
1.23119e-18 -2.9241e-20 0 0 -1.23119e-18 0 0 0 
1.33866e-18 -3.263e-20 0 0 -1.33866e-18 0 0 0 
1.6421e-18 -2.05263e-21 0 0 -1.6421e-18 0 0 0 
1.2641e-18 -3.00224e-20 0 0 -1.2641e-18 0 0 0 
1.34814e-18 -3.2861e-20 0 0 -1.34814e-18 0 0 0 
1.49258e-18 -1.86573e-21 0 0 -1.49258e-18 0 0 0 
1.39138e-18 -3.30454e-20 0 0 -1.39138e-18 0 0 0 
1.32851e-18 -3.15522e-20 0 0 -1.32851e-18 0 0 0 
1.60347e-18 -2.00434e-21 0 0 -1.60347e-18 0 0 0 
1.31004e-18 -1.63756e-21 0 0 -1.31004e-18 0 0 0 
1.26509e-18 -1.58137e-21 0 0 -1.26509e-18 0 0 0 
1.35864e-18 -3.22677e-20 0 0 -1.35864e-18 0 0 1.25732e-30 
1.33418e-18 -3.16868e-20 0 0 -1.33418e-18 0 0 0 
1.32142e-18 -3.13838e-20 0 0 -1.32142e-18 0 0 1.21521e-30 
1.54318e-18 -1.92898e-21 0 0 -1.54318e-18 0 0 0 
1.3399e-18 -3.18226e-20 0 0 -1.3399e-18 0 0 0 
1.30672e-18 -3.10347e-20 0 0 -1.30672e-18 0 0 0 
1.4566e-18 -3.45943e-20 0 0 -1.4566e-18 0 0 0 
1.6136e-18 -2.017e-21 0 0 -1.6136e-18 0 0 0 
1.41336e-18 -3.35673e-20 0 0 -1.41336e-18 0 0 0 
1.34455e-18 -3.19331e-20 0 0 -1.34455e-18 0 0 0 
1.28154e-18 -3.04366e-20 0 0 -1.28154e-18 0 0 0 
1.66924e-18 -2.08657e-21 0 0 -1.66924e-18 0 0 0 
1.30072e-18 -3.08922e-20 0 0 -1.30072e-18 0 0 0 
1.19733e-18 -2.91848e-20 0 0 -1.19733e-18 0 0 1.10558e-30 
1.38719e-18 -1.734e-21 0 0 -1.38719e-18 0 0 0 
1.24587e-18 -2.95894e-20 0 0 -1.24587e-18 0 0 0 
1.28812e-18 -3.0593e-20 0 0 -1.28812e-18 0 0 0 
1.5178e-18 -1.89725e-21 0 0 -1.5178e-18 0 0 0 
1.27428e-18 -3.02642e-20 0 0 -1.27428e-18 0 0 0 
1.34904e-18 -3.20397e-20 0 0 -1.34904e-18 0 0 0 
1.76911e-18 -2.21139e-21 0 0 -1.76911e-18 0 0 0 
1.3681e-18 -3.24924e-20 0 0 -1.3681e-18 0 0 0 
1.25232e-18 -2.97427e-20 0 0 -1.25232e-18 0 0 0 
1.36847e-18 -1.71059e-21 0 0 -1.36847e-18 0 0 0 
1.5174e-18 -1.89676e-21 0 0 -1.5174e-18 0 0 0 
1.36068e-18 -3.23162e-20 0 0 -1.36068e-18 0 0 0 
1.44105e-18 -3.42251e-20 0 0 -1.44105e-18 0 0 0 
1.64058e-18 -2.05073e-21 0 0 -1.64058e-18 0 0 0 
1.36289e-18 -3.23686e-20 0 0 -1.36289e-18 0 0 0 
1.30841e-18 -3.10748e-20 0 0 -1.30841e-18 0 0 0 
1.32709e-18 -3.15185e-20 0 0 -1.32709e-18 0 0 0 
1.32188e-18 -3.13947e-20 0 0 -1.32188e-18 0 0 0 
1.32184e-18 -3.13937e-20 0 0 -1.32184e-18 0 0 0 
1.38519e-18 -3.37642e-20 0 0 -1.38519e-18 0 0 0 
1.37032e-18 -3.42581e-20 0 0 -1.37032e-18 0 0 0 
1.29066e-18 -3.22666e-20 0 0 -1.29066e-18 0 0 0 
1.26509e-18 -3.16271e-20 0 0 -1.26509e-18 0 0 0 
1.3089e-18 -3.27227e-20 0 0 -1.3089e-18 0 0 0 
1.32403e-18 -1.13867e-18 0 0 -1.32403e-18 0 0 1.22134e-30 
1.3366e-18 -6.34886e-19 0 0 -1.3366e-18 0 0 1.23204e-30 
1.32508e-18 -6.29415e-19 0 0 -1.32508e-18 0 0 0 
1.31507e-18 -6.2466e-19 0 0 -1.31507e-18 0 0 0 
1.31449e-18 -6.40812e-19 0 0 -1.31449e-18 0 0 0 
1.33213e-18 -1.14563e-18 0 0 -1.33213e-18 0 0 1.22925e-30 
1.33277e-18 -6.33064e-19 0 0 -1.33277e-18 0 0 0 
1.31427e-18 -6.24277e-19 0 0 -1.31427e-18 0 0 0 
1.3292e-18 -6.3137e-19 0 0 -1.3292e-18 0 0 0 
1.3121e-18 -6.3965e-19 0 0 -1.3121e-18 0 0 0 
1.33394e-18 -3.33486e-20 0 0 -1.33394e-18 0 0 1.22937e-30 
1.2446e-18 -3.1115e-20 0 0 -1.2446e-18 0 0 0 
1.40648e-18 -3.5162e-20 0 0 -1.40648e-18 0 0 1.29206e-30 
2.73648e-21 0 0 -1.60084e-20 0 0 -2.73648e-21 0 
0 0 0 0 0 0 0 0 
0 0 0 0 0 0 0 0 
0 0 0 0 0 0 0 0 
0 0 0 0 0 0 0 0 
0 0 0 0 0 0 0 0 
0 0 0 0 0 0 0 0 
0 0 0 0 0 0 0 0 
0 0 0 0 0 0 0 0 
0 0 0 0 0 0 0 0 
0 0 0 0 0 0 0 0 
0 0 0 0 0 0 0 0 
0 0 0 0 0 0 0 0 
8.75426e-22 2.07913e-23 0 0 8.75426e-22 0 0 0 
2.42829e-21 5.7672e-23 0 0 2.42829e-21 0 0 0 
0 0 0 0 0 0 0 0 
0 0 0 0 0 0 0 0 
0 0 0 0 0 0 0 0 
0 0 0 0 0 0 0 0 
0 0 0 0 0 0 0 0 
0 0 0 0 0 0 0 0 
0 0 0 0 0 0 0 0 
0 0 0 0 0 0 0 0 
0 0 0 0 0 0 0 0 
0 0 0 0 0 0 0 0 
0 0 0 0 0 0 0 0 
0 0 0 0 0 0 0 0 
0 0 0 0 0 0 0 0 
0 0 0 0 0 0 0 0 
0 0 0 0 0 0 0 0 
0 0 0 0 0 0 0 0 
0 0 0 0 0 0 0 0 
0 0 0 0 0 0 0 0 
0 0 0 0 0 0 0 0 
0 0 0 0 0 0 0 0 
0 0 0 0 0 0 0 0 
0 0 0 0 0 0 0 0 
0 0 0 0 0 0 0 0 
0 0 0 0 0 0 0 0 
0 0 0 0 0 0 0 0 
7.58673e-22 1.80185e-23 0 0 7.58673e-22 0 0 0 
0 0 0 0 0 0 0 0 
0 0 0 0 0 0 0 0 
0 0 0 0 0 0 0 0 
0 0 0 0 0 0 0 0 
0 0 0 0 0 0 0 0 
0 0 0 0 0 0 0 0 
0 0 0 0 0 0 0 0 
0 0 0 0 0 0 0 0 
0 0 0 0 0 0 0 0 
0 0 0 0 0 0 0 0 
0 0 0 0 0 0 0 0 
1.72593e-21 4.0991e-23 0 0 1.72593e-21 0 0 0 
0 0 0 0 0 0 0 0 
0 0 0 0 0 0 0 0 
0 0 0 0 0 0 0 0 
0 0 0 0 0 0 0 0 
0 0 0 0 0 0 0 0 
0 0 0 0 0 0 0 0 
0 0 0 0 0 0 0 0 
0 0 0 0 0 0 0 0 
0 0 0 0 0 0 0 0 
0 0 0 0 0 0 0 0 
0 0 0 0 0 0 0 0 
0 0 0 0 0 0 0 0 
0 0 0 0 0 0 0 0 
0 0 0 0 0 0 0 0 
0 0 0 0 0 0 0 0 
0 0 0 0 0 0 0 0 
0 0 0 0 0 0 0 0 
0 0 0 0 0 0 0 0 
0 0 0 0 0 0 0 0 
0 0 0 0 0 0 0 0 
0 0 0 0 0 0 0 0 
0 0 0 0 0 0 0 0 
0 0 0 0 0 0 0 0 
0 0 0 0 0 0 0 0 
0 0 0 0 0 0 0 0 
0 0 0 0 0 0 0 0 
0 0 0 0 0 0 0 0 
0 0 0 0 0 0 0 0 
0 0 0 0 0 0 0 0 
0 0 0 0 0 0 0 0 
2.72223e-19 -2.85832e-19 -3.50072e-19 -3.50072e-19 -1.36112e-19 -1.66702e-19 -1.66702e-19 -9.02754e-32 
2.14809e-21 0 0 -3.17657e-19 0 0 -2.14809e-21 0 
1.07794e-21 0 2.18375e-19 -2.18375e-19 0 7.62217e-22 -7.62217e-22 -4.98162e-35 
2.74641e-19 -2.88372e-19 3.53182e-19 3.53182e-19 -1.37321e-19 1.68183e-19 1.68183e-19 -9.18641e-32 
2.16203e-21 0 0 3.19718e-19 0 0 2.16203e-21 0 
2.13306e-21 0 -1.94571e-19 1.94571e-19 0 -1.5083e-21 1.5083e-21 1.27108e-34 
2.40842e-21 0 -1.40893e-20 0 0 -2.40842e-21 0 0 
2.39233e-21 0 1.39952e-20 0 0 2.39233e-21 0 0 
2.31485e-21 0 0 -1.31946e-20 0 0 -2.31485e-21 0 
2.42129e-21 0 0 1.38013e-20 0 0 2.42129e-21 0 
2.37314e-21 0 0 -1.35269e-20 0 0 -2.37314e-21 0 
2.33698e-21 0 0 1.33208e-20 0 0 2.33698e-21 0 
2.40906e-21 0 0 1.37316e-20 0 0 2.40906e-21 0 
2.37857e-21 0 0 -1.35578e-20 0 0 -2.37857e-21 0 
2.33357e-21 0 0 -1.33014e-20 0 0 -2.33357e-21 0 
2.3143e-21 0 0 1.31915e-20 0 0 2.3143e-21 0 
2.32874e-21 0 0 -1.32738e-20 0 0 -2.32874e-21 0 
2.3094e-21 0 0 1.31636e-20 0 0 2.3094e-21 0 
2.43258e-21 0 -1.38657e-20 0 0 -2.43258e-21 0 0 
2.38252e-21 0 1.35804e-20 0 0 2.38252e-21 0 0 
2.37724e-21 0 0 -1.35503e-20 0 0 -2.37724e-21 0 
2.43521e-21 0 0 1.38807e-20 0 0 2.43521e-21 0 
2.45663e-21 0 -1.40028e-20 0 0 -2.45663e-21 0 0 
2.51129e-21 0 1.43144e-20 0 0 2.51129e-21 0 0 
2.4083e-21 0 -1.37273e-20 0 0 -2.4083e-21 0 0 
2.39731e-21 0 1.36647e-20 0 0 2.39731e-21 0 0 
2.40026e-21 0 1.40415e-20 0 0 2.40026e-21 0 0 
2.44228e-21 0 -1.42873e-20 0 0 -2.44228e-21 0 0 
2.31952e-21 0 1.35692e-20 0 0 2.31952e-21 0 0 
2.31866e-21 0 -1.35642e-20 0 0 -2.31866e-21 0 0 
2.35116e-21 0 -1.34016e-20 0 0 -2.35116e-21 0 0 
2.37414e-21 0 1.35326e-20 0 0 2.37414e-21 0 0 
2.35999e-21 0 1.38059e-20 0 0 2.35999e-21 0 0 
2.42452e-21 0 -7.09173e-21 0 0 -2.42452e-21 0 0 
2.3856e-21 0 0 6.97788e-21 0 0 2.3856e-21 0 
2.40355e-21 0 0 -1.37002e-20 0 0 -2.40355e-21 0 
2.84943e-21 0 0 1.62418e-20 0 0 2.84943e-21 0 
2.3395e-21 0 0 1.36861e-20 0 0 2.3395e-21 0 
2.32453e-21 0 0 -1.35985e-20 0 0 -2.32453e-21 0 
2.30435e-21 0 -1.31348e-20 0 0 -2.30435e-21 0 0 
2.3402e-21 0 1.33392e-20 0 0 2.3402e-21 0 0 
2.39189e-21 0 -1.36338e-20 0 0 -2.39189e-21 0 0 
2.32733e-21 0 1.32658e-20 0 0 2.32733e-21 0 0 
2.38166e-21 0 0 1.35755e-20 0 0 2.38166e-21 0 
2.36316e-21 0 0 -1.347e-20 0 0 -2.36316e-21 0 
2.30127e-21 0 -1.31172e-20 0 0 -2.30127e-21 0 0 
2.32432e-21 0 1.32486e-20 0 0 2.32432e-21 0 0 
2.38777e-21 0 0 1.36103e-20 0 0 2.38777e-21 0 
2.30784e-21 0 0 -1.31547e-20 0 0 -2.30784e-21 0 
2.32211e-21 0 -1.3236e-20 0 0 -2.32211e-21 0 0 
2.36381e-21 0 1.34737e-20 0 0 2.36381e-21 0 0 
2.34196e-21 0 0 1.33492e-20 0 0 2.34196e-21 0 
2.75111e-21 0 0 -1.56813e-20 0 0 -2.75111e-21 0 
2.4078e-21 0 1.37245e-20 0 0 2.4078e-21 0 0 
2.36188e-21 0 -1.34627e-20 0 0 -2.36188e-21 0 0 
2.34532e-21 0 1.33683e-20 0 0 2.34532e-21 0 0 
2.37623e-21 0 -1.35445e-20 0 0 -2.37623e-21 0 0 
2.29906e-21 0 0 -1.31046e-20 0 0 -2.29906e-21 0 
2.41351e-21 0 0 1.3757e-20 0 0 2.41351e-21 0 
2.38887e-21 0 0 1.36165e-20 0 0 2.38887e-21 0 
2.77931e-21 0 0 -1.58421e-20 0 0 -2.77931e-21 0 
2.34506e-21 0 0 1.33668e-20 0 0 2.34506e-21 0 
2.81339e-21 0 0 -1.60363e-20 0 0 -2.81339e-21 0 
2.34579e-21 0 -1.3371e-20 0 0 -2.34579e-21 0 0 
2.83374e-21 0 1.61523e-20 0 0 2.83374e-21 0 0 
2.42274e-21 0 -1.38096e-20 0 0 -2.42274e-21 0 0 
2.36392e-21 0 1.34744e-20 0 0 2.36392e-21 0 0 
2.76343e-21 0 1.61661e-20 0 0 2.76343e-21 0 0 
2.30558e-21 0 0 -1.34876e-20 0 0 -2.30558e-21 0 
2.4231e-21 0 -1.41752e-20 0 0 -2.4231e-21 0 0 
2.36465e-21 0 1.38332e-20 0 0 2.36465e-21 0 0 
2.34014e-21 0 1.36898e-20 0 0 2.34014e-21 0 0 
2.36641e-21 0 -1.38435e-20 0 0 -2.36641e-21 0 0 
2.35702e-21 0 0 -1.37886e-20 0 0 -2.35702e-21 0 
2.32484e-21 0 0 1.36003e-20 0 0 2.32484e-21 0 
2.3388e-21 0 0 1.3682e-20 0 0 2.3388e-21 0 
2.25334e-21 0 0 -1.31821e-20 0 0 -2.25334e-21 0 
2.79503e-21 0 -1.59317e-20 0 0 -2.79503e-21 0 0 
2.26616e-21 0 1.29171e-20 0 0 2.26616e-21 0 0 
2.33982e-21 0 0 -1.36879e-20 0 0 -2.33982e-21 0 
2.40452e-21 0 0 1.40665e-20 0 0 2.40452e-21 0 
2.30761e-21 0 -6.74977e-21 0 0 -2.30761e-21 0 0 
2.8325e-21 0 -1.65702e-20 0 0 -2.8325e-21 0 0 
2.85278e-21 0 1.66887e-20 0 0 2.85278e-21 0 0 
2.78422e-21 0 -1.62877e-20 0 0 -2.78422e-21 0 0 
2.85819e-21 0 1.67204e-20 0 0 2.85819e-21 0 0 
2.76419e-21 0 -1.57559e-20 0 0 -2.76419e-21 0 0 
2.33474e-21 0 1.3308e-20 0 0 2.33474e-21 0 0 
2.75692e-21 0 0 -1.6128e-20 0 0 -2.75692e-21 0 
2.71422e-21 0 0 1.58782e-20 0 0 2.71422e-21 0 
2.38603e-21 0 1.36004e-20 0 0 2.38603e-21 0 0 
2.88038e-21 0 -1.64181e-20 0 0 -2.88038e-21 0 0 
2.82475e-21 0 0 1.61011e-20 0 0 2.82475e-21 0 
2.82112e-21 0 0 -1.60804e-20 0 0 -2.82112e-21 0 
2.83946e-21 0 0 1.66108e-20 0 0 2.83946e-21 0 
2.37088e-21 0 6.93483e-21 0 0 2.37088e-21 0 0 
2.35396e-21 0 -1.34176e-20 0 0 -2.35396e-21 0 0 
2.87611e-21 0 1.63938e-20 0 0 2.87611e-21 0 0 
2.82094e-21 0 1.60794e-20 0 0 2.82094e-21 0 0 
2.75263e-21 0 -1.569e-20 0 0 -2.75263e-21 0 0 
2.76444e-21 0 1.57573e-20 0 0 2.76444e-21 0 0 
2.8102e-21 0 -1.60181e-20 0 0 -2.8102e-21 0 0 
2.6989e-21 0 0 -1.53837e-20 0 0 -2.6989e-21 0 
2.76717e-21 0 0 1.57729e-20 0 0 2.76717e-21 0 
2.31949e-21 0 1.32211e-20 0 0 2.31949e-21 0 0 
2.81448e-21 0 -1.60425e-20 0 0 -2.81448e-21 0 0 
2.82797e-21 0 0 -1.61194e-20 0 0 -2.82797e-21 0 
2.78633e-21 0 0 1.58821e-20 0 0 2.78633e-21 0 
2.72171e-21 0 1.55137e-20 0 0 2.72171e-21 0 0 
2.37629e-21 0 -1.35448e-20 0 0 -2.37629e-21 0 0 
2.78025e-21 0 -1.58474e-20 0 0 -2.78025e-21 0 0 
2.68611e-21 0 1.53108e-20 0 0 2.68611e-21 0 0 
2.78317e-21 0 0 -1.5864e-20 0 0 -2.78317e-21 0 
2.71926e-21 0 0 1.54998e-20 0 0 2.71926e-21 0 
2.76692e-21 0 0 -1.57714e-20 0 0 -2.76692e-21 0 
2.84565e-21 0 0 1.62202e-20 0 0 2.84565e-21 0 
2.74502e-21 0 0 1.56466e-20 0 0 2.74502e-21 0 
2.76275e-21 0 0 -1.57476e-20 0 0 -2.76275e-21 0 
2.91613e-21 0 -1.66219e-20 0 0 -2.91613e-21 0 0 
2.79944e-21 0 1.59568e-20 0 0 2.79944e-21 0 0 
2.76394e-21 0 0 1.57544e-20 0 0 2.76394e-21 0 
2.89152e-21 0 0 -1.64817e-20 0 0 -2.89152e-21 0 
2.7753e-21 0 0 -1.58192e-20 0 0 -2.7753e-21 0 
2.3241e-21 0 0 1.32474e-20 0 0 2.3241e-21 0 
2.78286e-21 0 1.58623e-20 0 0 2.78286e-21 0 0 
2.7952e-21 0 -1.59326e-20 0 0 -2.7952e-21 0 0 
2.76837e-21 0 -1.57797e-20 0 0 -2.76837e-21 0 0 
2.80503e-21 0 1.59887e-20 0 0 2.80503e-21 0 0 
2.78716e-21 0 0 1.58868e-20 0 0 2.78716e-21 0 
2.80961e-21 0 0 -1.60148e-20 0 0 -2.80961e-21 0 
2.81762e-21 0 1.60604e-20 0 0 2.81762e-21 0 0 
2.86581e-21 0 -1.63351e-20 0 0 -2.86581e-21 0 0 
2.78715e-21 0 0 1.58867e-20 0 0 2.78715e-21 0 
2.78116e-21 0 0 -1.58526e-20 0 0 -2.78116e-21 0 
2.06683e-21 -2.8013e-24 0 -1.47262e-21 -3.93165e-24 0 -2.06683e-21 1.40221e-34 
7.78827e-21 -9.54789e-23 -3.20818e-23 -1.43485e-21 -5.16979e-22 -1.7371e-22 -7.76915e-21 2.08563e-34 
3.78582e-21 -2.71349e-23 -1.19368e-23 -7.0018e-22 -1.46585e-22 -6.44835e-23 -3.78243e-21 3.44634e-34 
7.45123e-21 -9.17607e-23 -6.13876e-23 -1.34842e-21 -5.05371e-22 -3.38091e-22 -7.42638e-21 -7.02716e-34 
1.65484e-21 -1.96946e-25 -5.9181e-28 -4.13711e-22 -7.87786e-25 -2.36724e-27 -1.65484e-21 -2.84075e-34 
1.47966e-21 -2.0963e-24 -1.09932e-23 -3.5541e-22 -8.72309e-24 -4.57447e-23 -1.47893e-21 -2.95522e-34 
2.56429e-21 -4.53307e-24 -1.43433e-23 -4.13368e-22 -2.81019e-23 -8.89188e-23 -2.5626e-21 3.35797e-34 
2.70156e-21 -8.81159e-24 -2.12503e-23 -4.88154e-22 -4.87114e-23 -1.17474e-22 -2.69856e-21 1.79664e-34 
4.92965e-21 -3.48152e-23 -1.55433e-23 -9.1173e-22 -1.88079e-22 -8.39682e-23 -4.92535e-21 1.01442e-33 
2.88177e-21 -1.61102e-23 -2.72594e-23 -5.18269e-22 -8.94122e-23 -1.5129e-22 -2.8764e-21 -6.8142e-34 
4.03914e-21 -3.86038e-23 -2.95174e-23 -7.34029e-22 -2.11961e-22 -1.62071e-22 -4.03032e-21 -9.25282e-35 
1.51721e-21 -2.36294e-24 -5.74718e-24 -4.96181e-22 -7.22477e-24 -1.75722e-23 -1.51709e-21 -5.9622e-34 
2.81033e-21 -8.14792e-24 -5.2401e-24 -4.63269e-22 -4.9417e-23 -3.17811e-23 -2.80972e-21 -4.38027e-35 
2.31103e-21 -3.1767e-24 -1.09735e-23 -2.76907e-22 -2.64898e-23 -9.15053e-23 -2.30906e-21 2.20823e-34 
1.82886e-21 -3.17336e-24 -5.16128e-24 -2.98672e-22 -1.94275e-23 -3.15977e-23 -1.82848e-21 -1.47383e-35 
7.28474e-22 -2.31054e-25 0 -1.36589e-23 -1.23211e-23 0 -7.2837e-22 1.02701e-33 
2.96386e-21 -9.57829e-24 1.55424e-23 -5.42275e-22 -5.23215e-23 8.49008e-23 -2.96218e-21 -2.95887e-34 
2.32139e-21 -8.50675e-24 0 -8.26995e-22 -2.38773e-23 0 -2.32127e-21 1.72311e-34 
2.00127e-21 -2.55084e-25 6.42208e-24 -4.82106e-22 -1.05879e-24 2.66564e-23 -2.0011e-21 3.99702e-35 
1.58006e-21 -2.23853e-24 1.17391e-23 -3.79525e-22 -9.31496e-24 4.88486e-23 -1.57927e-21 3.75663e-34 
5.48613e-21 -5.2495e-23 4.51979e-23 -9.92799e-22 -2.89379e-22 2.49154e-22 -5.47282e-21 2.85324e-34 
3.61985e-21 -2.5598e-23 1.32268e-23 -6.68277e-22 -1.38528e-22 7.15792e-23 -3.61649e-21 1.75879e-34 
4.29183e-21 -3.7136e-23 4.70463e-23 -7.67566e-22 -2.07015e-22 2.6226e-22 -4.2788e-21 4.56285e-34 
2.81369e-21 -1.40715e-23 1.77435e-23 -5.13207e-22 -7.70728e-23 9.71856e-23 -2.81096e-21 -2.6372e-34 
1.68189e-21 -3.27381e-24 9.40761e-24 -2.71123e-22 -2.02951e-23 5.832e-23 -1.68076e-21 3.28331e-34 
2.38436e-21 -4.13027e-24 4.44583e-24 -3.93049e-22 -2.50525e-23 2.69666e-23 -2.38407e-21 1.02217e-34 
3.11349e-21 -2.91032e-23 0 -1.10918e-21 -8.16651e-23 0 -3.11242e-21 2.33059e-34 
1.78937e-21 -6.07324e-25 0 -1.27493e-21 -8.52385e-25 0 -1.78937e-21 1.74009e-34 
2.24286e-21 -3.69356e-24 1.31745e-23 -5.45521e-22 -1.5181e-23 5.41487e-23 -2.24216e-21 2.52316e-34 
6.24443e-21 -7.4301e-23 0 -1.14156e-21 -4.05575e-22 0 -6.23124e-21 -5.5849e-34 
2.14279e-21 -2.90426e-24 1.52674e-21 0 -4.07615e-24 2.14279e-21 0 -8.10916e-35 
7.31642e-21 -8.96943e-23 1.34792e-21 -3.01381e-23 -4.85658e-22 7.29846e-21 -1.63186e-22 -3.45432e-34 
3.42968e-21 -2.45822e-23 6.34312e-22 -1.08139e-23 -1.32795e-22 3.42661e-21 -5.84174e-23 -6.24242e-34 
8.92429e-21 -1.09901e-22 1.61499e-21 -7.35235e-23 -6.0528e-22 8.89453e-21 -4.0493e-22 -2.45288e-34 
1.66135e-21 -1.97721e-25 4.15338e-22 -5.94137e-28 -7.90884e-25 1.66135e-21 -2.37655e-27 4.81482e-35 
1.69303e-21 -2.39859e-24 4.06661e-22 -1.25784e-23 -9.98098e-24 1.69219e-21 -5.23412e-23 1.3023e-34 
2.03937e-21 -3.60512e-24 3.28749e-22 -1.14072e-23 -2.23493e-23 2.03802e-21 -7.07165e-23 8.95459e-35 
2.3771e-21 -7.7533e-24 4.29526e-22 -1.86981e-23 -4.28611e-23 2.37446e-21 -1.03365e-22 -6.65421e-35 
4.23195e-21 -2.98877e-23 7.8269e-22 -1.33434e-23 -1.61459e-22 4.22825e-21 -7.20839e-23 1.23551e-34 
2.85905e-21 -1.59832e-23 5.14184e-22 -2.70445e-23 -8.87073e-23 2.85373e-21 -1.50097e-22 -8.01671e-35 
4.47233e-21 -4.2744e-23 8.12753e-22 -3.26832e-23 -2.34693e-22 4.46256e-21 -1.79453e-22 -9.91374e-35 
1.70134e-21 -2.64972e-24 5.56399e-22 -6.44468e-24 -8.1016e-24 1.70121e-21 -1.97048e-23 2.87069e-34 
2.1706e-21 -6.29317e-24 3.57813e-22 -4.04727e-24 -3.8168e-23 2.17013e-21 -2.45466e-23 1.82511e-34 
2.18545e-21 -3.00408e-24 2.6186e-22 -1.03772e-23 -2.50504e-23 2.18359e-21 -8.65332e-23 -3.5131e-34 
2.03033e-21 -3.52294e-24 3.31574e-22 -5.72985e-24 -2.15676e-23 2.02991e-21 -3.50785e-23 4.56888e-34 
5.86273e-22 -1.85951e-25 1.09926e-23 0 -9.91595e-24 5.86189e-22 0 0 
2.26517e-21 -7.32033e-24 4.1444e-22 1.18785e-23 -3.99874e-23 2.26389e-21 6.48866e-23 3.28763e-35 
2.78831e-21 -1.02178e-23 9.93337e-22 0 -2.868e-23 2.78817e-21 0 1.45282e-34 
1.59313e-21 -2.03061e-25 3.83784e-22 5.11234e-24 -8.42854e-25 1.59299e-21 2.122e-23 1.09918e-34 
1.71255e-21 -2.42624e-24 4.11349e-22 1.27235e-23 -1.0096e-23 1.7117e-21 5.29447e-23 -4.80849e-34 
4.56363e-21 -4.36679e-23 8.2586e-22 3.75979e-23 -2.4072e-22 4.55256e-21 2.07259e-22 3.18502e-34 
3.44825e-21 -2.43845e-23 6.36596e-22 1.25998e-23 -1.31961e-22 3.44504e-21 6.81859e-23 7.03518e-34 
3.79542e-21 -3.28407e-23 6.78786e-22 4.16047e-23 -1.83071e-22 3.7839e-21 2.31926e-22 1.20781e-34 
3.28916e-21 -1.64493e-23 5.9993e-22 2.07419e-23 -9.00968e-23 3.28596e-21 1.13608e-22 1.38453e-34 
2.16326e-21 -4.2108e-24 3.48721e-22 1.21001e-23 -2.61037e-23 2.1618e-21 7.50117e-23 5.96965e-34 
2.45795e-21 -4.25775e-24 4.05181e-22 4.58305e-24 -2.58257e-23 2.45766e-21 2.77989e-23 2.92047e-35 
4.17667e-21 -3.90412e-23 1.48794e-21 0 -1.09552e-22 4.17523e-21 0 4.1883e-34 
1.87143e-21 -6.35176e-25 1.33339e-21 0 -8.91475e-25 1.87143e-21 0 3.71671e-35 
1.67038e-21 -2.7508e-24 4.0628e-22 9.81175e-24 -1.13061e-23 1.66986e-21 4.03275e-23 -3.56211e-34 
7.07381e-21 -8.41697e-23 1.29318e-21 0 -4.59443e-22 7.05887e-21 0 -2.95671e-34 
2.09905e-21 -2.84498e-24 0 1.49558e-21 -3.99295e-24 0 2.09905e-21 -3.00715e-34 
7.19343e-21 -8.81866e-23 2.96315e-23 1.32527e-21 -4.77495e-22 1.60443e-22 7.17577e-21 -7.49522e-34 
4.40268e-21 -3.15562e-23 1.38818e-23 8.14268e-22 -1.70469e-22 7.49905e-23 4.39874e-21 -5.39709e-34 
8.03398e-21 -9.89372e-23 6.61886e-23 1.45387e-21 -5.44896e-22 3.64533e-22 8.00719e-21 -8.61822e-35 
1.64002e-21 -1.95182e-25 5.86509e-28 4.10005e-22 -7.80729e-25 2.34603e-27 1.64002e-21 3.17778e-34 
1.76977e-21 -2.50731e-24 1.31486e-23 4.25094e-22 -1.04334e-23 5.47138e-23 1.7689e-21 2.40425e-34 
2.44061e-21 -4.31443e-24 1.36515e-23 3.9343e-22 -2.67465e-23 8.463e-23 2.439e-21 -2.31327e-34 
2.40665e-21 -7.84969e-24 1.89305e-23 4.34865e-22 -4.33939e-23 1.0465e-22 2.40398e-21 -5.92225e-34 
4.34905e-21 -3.07148e-23 1.37127e-23 8.04349e-22 -1.65927e-22 7.40787e-23 4.34526e-21 1.30053e-34 
2.90679e-21 -1.62501e-23 2.74961e-23 5.22769e-22 -9.01885e-23 1.52604e-22 2.90138e-21 -5.34447e-34 
4.79524e-21 -4.58302e-23 3.50429e-23 8.71435e-22 -2.51639e-22 1.92409e-22 4.78477e-21 -5.55169e-34 
1.56413e-21 -2.43602e-24 5.92493e-24 5.11527e-22 -7.44822e-24 1.81157e-23 1.56401e-21 1.84019e-34 
2.38806e-21 -6.92364e-24 4.45274e-24 3.9366e-22 -4.19918e-23 2.70058e-23 2.38754e-21 -5.76736e-34 
1.88156e-21 -2.58636e-24 8.93425e-24 2.25449e-22 -2.15671e-23 7.45007e-23 1.87996e-21 -4.01497e-35 
2.87846e-21 -4.99457e-24 8.12338e-24 4.70081e-22 -3.05771e-23 4.97318e-23 2.87786e-21 2.6529e-34 
1.91686e-21 -6.07978e-25 0 3.59411e-23 -3.24208e-23 0 1.91658e-21 -1.28377e-34 
2.84216e-21 -9.185e-24 -1.49043e-23 5.20008e-22 -5.01732e-23 -8.14147e-23 2.84055e-21 -3.35338e-34 
2.47326e-21 -9.06328e-24 0 8.81099e-22 -2.54394e-23 0 2.47313e-21 -2.7367e-34 
1.74751e-21 -2.22739e-25 -5.60776e-24 4.20975e-22 -9.24531e-25 -2.32763e-23 1.74736e-21 6.49515e-35 
1.88941e-21 -2.6768e-24 -1.40374e-23 4.5383e-22 -1.11387e-23 -5.84123e-23 1.88847e-21 2.00354e-35 
4.85424e-21 -4.64486e-23 -3.9992e-23 8.78449e-22 -2.56049e-22 -2.20457e-22 4.84246e-21 3.71585e-34 
4.09057e-21 -2.89267e-23 -1.49469e-23 7.5518e-22 -1.56542e-22 -8.08873e-23 4.08678e-21 -4.55984e-35 
4.61254e-21 -3.9911e-23 -5.05618e-23 8.24923e-22 -2.22484e-22 -2.81857e-22 4.59854e-21 1.08703e-33 
3.16861e-21 -1.58464e-23 -1.99817e-23 5.77943e-22 -8.67947e-23 -1.09445e-22 3.16553e-21 -5.14253e-34 
2.27831e-21 -4.43474e-24 -1.27437e-23 3.67267e-22 -2.7492e-23 -7.90011e-23 2.27677e-21 5.67117e-34 
2.28042e-21 -3.95023e-24 -4.25204e-24 3.75916e-22 -2.39605e-23 -2.57911e-23 2.28015e-21 -9.49154e-35 
3.4368e-21 -3.21253e-23 0 1.22436e-21 -9.01454e-23 0 3.43562e-21 8.51171e-34 
2.01331e-21 -6.83332e-25 0 1.43448e-21 -9.59062e-25 0 2.01331e-21 -2.872e-35 
1.85043e-21 -3.04729e-24 -1.08693e-23 4.5007e-22 -1.25248e-23 -4.46742e-23 1.84984e-21 3.42114e-51 
7.43363e-21 -8.84511e-23 0 1.35896e-21 -4.82813e-22 0 7.41793e-21 -2.7596e-34 
2.12065e-21 -2.87425e-24 -1.51097e-21 0 -4.03403e-24 -2.12065e-21 0 2.36517e-35 
8.07774e-21 -9.90276e-23 -1.48818e-21 3.32742e-23 -5.36194e-22 -8.05791e-21 1.80166e-22 4.49713e-34 
3.5008e-21 -2.5092e-23 -6.47465e-22 1.10381e-23 -1.35549e-22 -3.49766e-21 5.96288e-23 1.69066e-34 
7.81051e-21 -9.61852e-23 -1.41343e-21 6.43476e-23 -5.29739e-22 -7.78447e-21 3.54394e-22 -2.05511e-34 
1.73992e-21 -2.07071e-25 -4.34979e-22 6.22234e-28 -8.28284e-25 -1.73992e-21 2.48893e-27 2.35926e-34 
1.56141e-21 -2.21211e-24 -3.75045e-22 1.16005e-23 -9.205e-24 -1.56063e-21 4.8272e-23 -6.84228e-51 
2.14424e-21 -3.79052e-24 -3.45655e-22 1.19938e-23 -2.34986e-23 -2.14283e-21 7.43532e-23 -7.46215e-35 
2.3661e-21 -7.71742e-24 -4.27538e-22 1.86116e-23 -4.26627e-23 -2.36347e-21 1.02887e-22 1.66355e-34 
3.91681e-21 -2.76621e-23 -7.24406e-22 1.23498e-23 -1.49436e-22 -3.91339e-21 6.67161e-23 -7.15293e-35 
2.92088e-21 -1.63289e-23 -5.25303e-22 2.76293e-23 -9.06256e-23 -2.91544e-21 1.53343e-22 -9.35283e-35 
4.84686e-21 -4.63235e-23 -8.80816e-22 3.54202e-23 -2.54348e-22 -4.83627e-21 1.94481e-22 2.84194e-34 
1.54592e-21 -2.40765e-24 -5.0557e-22 5.85593e-24 -7.36148e-24 -1.5458e-21 1.79047e-23 1.36174e-34 
2.42187e-21 -7.02167e-24 -3.99233e-22 4.51578e-24 -4.25863e-23 -2.42134e-21 2.73881e-23 -2.05268e-50 
2.05435e-21 -2.82387e-24 -2.46151e-22 9.75468e-24 -2.35476e-23 -2.0526e-21 8.13421e-23 -1.00374e-34 
2.03595e-21 -3.53269e-24 -3.32491e-22 5.74571e-24 -2.16273e-23 -2.03553e-21 3.51756e-23 -8.10607e-35 
5.72012e-22 -1.81428e-25 -1.07252e-23 0 -9.67475e-24 -5.7193e-22 0 7.70261e-34 
2.15603e-21 -6.96762e-24 -3.94471e-22 -1.13062e-23 -3.80607e-23 -2.15481e-21 -6.17601e-23 -5.78623e-34 
2.42961e-21 -8.90331e-24 -8.65548e-22 0 -2.49904e-23 -2.42948e-21 0 1.18253e-34 
1.95373e-21 -2.49024e-25 -4.70653e-22 -6.26952e-24 -1.03363e-24 -1.95356e-21 -2.60231e-23 -3.04773e-34 
1.73334e-21 -2.4557e-24 -4.16344e-22 -1.28779e-23 -1.02186e-23 -1.73248e-21 -5.35875e-23 1.70301e-34 
6.59799e-21 -6.31341e-23 -1.19401e-21 -5.43581e-23 -3.48027e-22 -6.58199e-21 -2.9965e-22 8.75879e-34 
3.39467e-21 -2.40056e-23 -6.26705e-22 -1.2404e-23 -1.2991e-22 -3.39152e-21 -6.71264e-23 7.882e-34 
3.34218e-21 -2.89189e-23 -5.97727e-22 -3.66364e-23 -1.61209e-22 -3.33203e-21 -2.0423e-22 1.15413e-33 
3.38453e-21 -1.69263e-23 -6.17326e-22 -2.13433e-23 -9.27093e-23 -3.38124e-21 -1.16903e-22 -1.05488e-34 
2.47389e-21 -4.81545e-24 -3.98795e-22 -1.38377e-23 -2.98521e-23 -2.47222e-21 -8.5783e-23 6.71585e-34 
2.34609e-21 -4.06398e-24 -3.86741e-22 -4.37448e-24 -2.46504e-23 -2.34581e-21 -2.65338e-23 -7.30118e-35 
3.68337e-21 -3.44301e-23 -1.3122e-21 0 -9.66127e-23 -3.68211e-21 0 3.00612e-34 
1.81859e-21 -6.17241e-25 -1.29574e-21 0 -8.66303e-25 -1.81859e-21 0 -9.46071e-35 
1.87167e-21 -3.08227e-24 -4.55236e-22 -1.09941e-23 -1.26685e-23 -1.87108e-21 -4.5187e-23 -5.93686e-35 
7.88469e-21 -9.38181e-23 -1.44142e-21 0 -5.1211e-22 -7.86804e-21 0 -7.22752e-34 
3.63334e-21 0 -3.03504e-21 -3.03504e-21 0 -2.56916e-21 -2.56916e-21 1.97469e-33 
0 0 0 0 0 0 0 0 
0 0 0 0 0 0 0 0 
0 0 0 0 0 0 0 0 
0 0 0 0 0 0 0 0 
0 0 0 0 0 0 0 0 
0 0 0 0 0 0 0 0 
0 0 0 0 0 0 0 0 
0 0 0 0 0 0 0 0 
0 0 0 0 0 0 0 0 
0 0 0 0 0 0 0 0 
0 0 0 0 0 0 0 0 
0 0 0 0 0 0 0 0 
0 0 0 0 0 0 0 0 
0 0 0 0 0 0 0 0 
0 0 0 0 0 0 0 0 
0 0 0 0 0 0 0 0 
0 0 0 0 0 0 0 0 
0 0 0 0 0 0 0 0 
0 0 0 0 0 0 0 0 
0 0 0 0 0 0 0 0 
0 0 0 0 0 0 0 0 
0 0 0 0 0 0 0 0 
0 0 0 0 0 0 0 0 
0 0 0 0 0 0 0 0 
0 0 0 0 0 0 0 0 
0 0 0 0 0 0 0 0 
0 0 0 0 0 0 0 0 
0 0 0 0 0 0 0 0 
0 0 0 0 0 0 0 0 
0 0 0 0 0 0 0 0 
0 0 0 0 0 0 0 0 
0 0 0 0 0 0 0 0 
0 0 0 0 0 0 0 0 
0 0 0 0 0 0 0 0 
0 0 0 0 0 0 0 0 
0 0 0 0 0 0 0 0 
0 0 0 0 0 0 0 0 
0 0 0 0 0 0 0 0 
0 0 0 0 0 0 0 0 
0 0 0 0 0 0 0 0 
0 0 0 0 0 0 0 0 
0 0 0 0 0 0 0 0 
0 0 0 0 0 0 0 0 
0 0 0 0 0 0 0 0 
0 0 0 0 0 0 0 0 
0 0 0 0 0 0 0 0 
3.41188e-21 0 2.85005e-21 2.85005e-21 0 2.41256e-21 2.41256e-21 1.86465e-33 
1.89313e-20 -7.74683e-22 -1.17399e-22 -4.37184e-21 -3.30199e-21 -5.00399e-22 -1.86344e-20 -8.64e-33 
2.16569e-20 -1.31538e-21 -4.80324e-22 -7.29426e-21 -3.83537e-21 -1.40052e-21 -2.12685e-20 -5.60156e-33 
1.85915e-20 -6.80345e-22 -1.19646e-22 -3.805e-21 -3.27074e-21 -5.75194e-22 -1.82924e-20 -6.77054e-34 
4.19984e-20 -1.2615e-21 -1.00659e-21 -4.98722e-21 -1.01073e-20 -8.06491e-21 -3.99583e-20 -3.92521e-33 
5.88559e-20 -9.75686e-22 -5.76931e-22 -3.92353e-21 -1.4061e-20 -8.31439e-21 -5.65436e-20 -5.56842e-33 
5.51223e-20 -9.69281e-22 -3.83772e-22 -3.98421e-21 -1.29734e-20 -5.13663e-21 -5.33271e-20 3.38333e-34 
3.24533e-20 -5.3148e-22 -1.94447e-22 -2.39683e-21 -7.0037e-21 -2.56237e-21 -3.15848e-20 5.32968e-33 
1.80016e-20 -5.65319e-22 -1.58243e-22 -3.10532e-21 -3.22014e-21 -9.01373e-22 -1.76883e-20 8.22779e-34 
2.09618e-20 -7.30154e-22 -1.95467e-22 -3.93267e-21 -3.82189e-21 -1.02314e-21 -2.0585e-20 -1.61296e-33 
2.00181e-20 -6.43422e-22 -2.83802e-22 -3.42042e-21 -3.68849e-21 -1.62693e-21 -1.96079e-20 2.13912e-34 
2.0032e-20 -6.67915e-22 -3.37264e-22 -3.40986e-21 -3.83263e-21 -1.93529e-21 -1.95665e-20 9.66994e-35 
4.79888e-20 -1.11127e-21 -9.79623e-22 -5.52218e-21 -9.32735e-21 -8.22238e-21 -4.63499e-20 1.53569e-32 
2.06696e-20 -7.75768e-22 -4.484e-22 -3.87715e-21 -4.02951e-21 -2.32909e-21 -2.01388e-20 -2.5822e-33 
2.91088e-20 -6.34012e-22 -2.21316e-22 -3.12188e-21 -5.77941e-21 -2.01743e-21 -2.84579e-20 6.93463e-33 
2.42891e-20 -6.72049e-22 -3.62565e-22 -3.16669e-21 -5.01111e-21 -2.70345e-21 -2.36123e-20 -7.27007e-34 
3.98268e-20 -6.69341e-22 -3.17348e-22 -2.73319e-21 -9.41374e-21 -4.46325e-21 -3.844e-20 -7.34725e-33 
3.25019e-20 -5.05866e-22 -2.22428e-22 -2.26992e-21 -7.03772e-21 -3.09447e-21 -3.15796e-20 -7.03341e-33 
3.08482e-20 -9.49571e-22 -4.22455e-22 -4.31122e-21 -6.60527e-21 -2.93862e-21 -2.99891e-20 -1.75834e-34 
2.66105e-20 -7.25615e-22 -4.93169e-22 -3.27473e-21 -5.69551e-21 -3.87099e-21 -2.5704e-20 1.89908e-33 
3.08515e-20 -7.17655e-22 -6.86117e-22 -3.30466e-21 -6.41652e-21 -6.13454e-21 -2.95468e-20 5.33809e-33 
2.73867e-20 -7.25379e-22 -6.20267e-22 -3.11097e-21 -6.10487e-21 -5.22024e-21 -2.61823e-20 1.20553e-33 
3.14729e-20 -9.48092e-22 -5.64253e-22 -4.09735e-21 -7.0321e-21 -4.18512e-21 -3.03905e-20 9.55298e-34 
4.02841e-20 -6.83488e-22 -3.29315e-22 -2.81885e-21 -9.43204e-21 -4.54451e-21 -3.88997e-20 3.63781e-33 
3.66007e-20 -1.14649e-21 -7.14684e-22 -4.7201e-21 -8.5469e-21 -5.32787e-21 -3.51877e-20 4.87259e-33 
3.03003e-20 -8.32828e-22 -7.47451e-22 -3.39506e-21 -7.05924e-21 -6.33556e-21 -2.87773e-20 2.87721e-33 
2.60069e-20 -7.49256e-22 -3.46107e-22 -4.07098e-21 -4.69108e-21 -2.16697e-21 -2.54883e-20 6.24767e-33 
4.97404e-20 -1.10017e-21 -6.68337e-22 -5.84818e-21 -9.13851e-21 -5.5515e-21 -4.85775e-20 -4.19937e-34 
2.49521e-20 -5.50467e-22 -1.35589e-22 -2.81164e-21 -4.78879e-21 -1.17955e-21 -2.44599e-20 1.43462e-33 
4.27402e-20 -7.01471e-22 -7.07625e-22 -3.21598e-21 -8.90492e-21 -8.98304e-21 -4.08257e-20 1.51889e-32 
5.71086e-20 -8.10331e-22 -9.92214e-22 -3.01334e-21 -1.41332e-20 -1.73054e-20 -5.25563e-20 -2.56128e-33 
3.23723e-20 -9.2054e-22 -8.46297e-22 -3.63193e-21 -7.75806e-21 -7.13237e-21 -3.06089e-20 6.69538e-34 
2.20816e-20 -7.99595e-22 -6.13687e-22 -3.83895e-21 -4.44849e-21 -3.41421e-21 -2.13577e-20 -3.64303e-33 
2.48124e-20 -7.39108e-22 4.07201e-22 -3.86216e-21 -4.63895e-21 2.55576e-21 -2.42405e-20 -2.16072e-33 
2.12208e-20 -7.11607e-22 1.50873e-22 -3.98664e-21 -3.72635e-21 7.90048e-22 -2.08761e-20 -3.19574e-33 
2.25855e-20 -7.86939e-22 2.59388e-22 -4.2181e-21 -4.1346e-21 1.36283e-21 -2.2162e-20 1.29648e-33 
2.38475e-20 -5.0842e-22 1.81703e-22 -2.56427e-21 -4.62682e-21 1.65357e-21 -2.33359e-20 -2.19084e-35 
3.03904e-20 -9.14436e-22 4.15918e-22 -4.24451e-21 -6.37129e-21 2.89789e-21 -2.95734e-20 3.00246e-33 
3.79314e-20 -5.56916e-22 2.80484e-22 -2.36129e-21 -8.64969e-21 4.35632e-21 -3.66742e-20 6.95464e-33 
3.54395e-20 -1.49552e-21 4.37072e-22 -8.43219e-21 -6.18085e-21 1.80638e-21 -3.48495e-20 1.05914e-32 
2.05817e-20 -8.48009e-22 1.77876e-22 -4.73386e-21 -3.62669e-21 7.60725e-22 -2.02454e-20 -1.19431e-33 