ITEM: TIMESTEP
255
ITEM: NUMBER OF SURFS
6916
ITEM: BOX BOUNDS oo rr rr
-20 20
-20 20
-20 20
ITEM: SURFS f_save[1] f_save[2] f_save[3] f_save[4] f_save[5] f_save[6] f_save[7] f_save[8] 
2.80877e-18 -2.10746e-19 0 0 -2.80877e-18 0 0 0 
2.39455e-19 0 0 -7.18611e-19 0 0 -2.39455e-19 0 
6.99912e-22 5.25114e-23 0 0 6.99912e-22 0 0 5.03338e-35 
1.44688e-18 -3.52677e-20 0 0 -1.44688e-18 0 0 1.34013e-30 
1.43009e-18 -1.78761e-21 0 0 -1.43009e-18 0 0 0 
1.36975e-18 -1.7122e-21 0 0 -1.36975e-18 0 0 0 
1.59171e-18 -1.98964e-21 0 0 -1.59171e-18 0 0 0 
1.43967e-18 -3.50919e-20 0 0 -1.43967e-18 0 0 1.32462e-30 
1.44616e-18 -3.43462e-20 0 0 -1.44616e-18 0 0 0 
1.45757e-18 -3.46172e-20 0 0 -1.45757e-18 0 0 0 
1.54345e-18 -3.66571e-20 0 0 -1.54345e-18 0 0 0 
1.52734e-18 -3.62743e-20 0 0 -1.52734e-18 0 0 0 
1.51333e-18 -3.68875e-20 0 0 -1.51333e-18 0 0 0 
1.47879e-18 -3.51213e-20 0 0 -1.47879e-18 0 0 0 
1.47636e-18 -3.50635e-20 0 0 -1.47636e-18 0 0 0 
1.45554e-18 -3.54788e-20 0 0 -1.45554e-18 0 0 0 
1.47309e-18 -3.59065e-20 0 0 -1.47309e-18 0 0 1.35795e-30 
1.46059e-18 -3.46891e-20 0 0 -1.46059e-18 0 0 1.35119e-30 
1.45259e-18 -3.44991e-20 0 0 -1.45259e-18 0 0 0 
1.47384e-18 -3.59248e-20 0 0 -1.47384e-18 0 0 1.35968e-30 
1.44842e-18 -3.43998e-20 0 0 -1.44842e-18 0 0 0 
1.49975e-18 -3.56191e-20 0 0 -1.49975e-18 0 0 0 
1.46531e-18 -3.57171e-20 0 0 -1.46531e-18 0 0 0 
1.47343e-18 -3.4994e-20 0 0 -1.47343e-18 0 0 0 
1.53909e-18 -3.65533e-20 0 0 -1.53909e-18 0 0 0 
1.48991e-18 -3.53854e-20 0 0 -1.48991e-18 0 0 0 
1.4129e-18 -1.76612e-21 0 0 -1.4129e-18 0 0 0 
1.44319e-18 -3.42758e-20 0 0 -1.44319e-18 0 0 0 
1.44054e-18 -3.42129e-20 0 0 -1.44054e-18 0 0 0 
1.52673e-18 -1.90841e-21 0 0 -1.52673e-18 0 0 0 
1.40825e-18 -3.34459e-20 0 0 -1.40825e-18 0 0 0 
1.41106e-18 -3.35126e-20 0 0 -1.41106e-18 0 0 0 
1.66748e-18 -2.08436e-21 0 0 -1.66748e-18 0 0 0 
1.50691e-18 -3.67308e-20 0 0 -1.50691e-18 0 0 1.38634e-30 
1.46735e-18 -3.48496e-20 0 0 -1.46735e-18 0 0 0 
1.58102e-18 -1.97628e-21 0 0 -1.58102e-18 0 0 0 
1.45797e-18 -3.5538e-20 0 0 -1.45797e-18 0 0 1.34006e-30 
1.41234e-18 -3.35432e-20 0 0 -1.41234e-18 0 0 0 
1.48683e-18 -1.85854e-21 0 0 -1.48683e-18 0 0 0 
1.4063e-18 -3.33998e-20 0 0 -1.4063e-18 0 0 0 
1.4264e-18 -3.47686e-20 0 0 -1.4264e-18 0 0 0 
1.81653e-18 -2.27067e-21 0 0 -1.81653e-18 0 0 0 
1.44233e-18 -3.42555e-20 0 0 -1.44233e-18 0 0 0 
1.46434e-18 -3.56932e-20 0 0 -1.46434e-18 0 0 0 
1.42041e-18 -1.77551e-21 0 0 -1.42041e-18 0 0 0 
1.48734e-18 -3.53244e-20 0 0 -1.48734e-18 0 0 0 
1.42606e-18 -3.3869e-20 0 0 -1.42606e-18 0 0 0 
1.61543e-18 -2.01929e-21 0 0 -1.61543e-18 0 0 0 
1.22825e-18 -1.53532e-21 0 0 -1.22825e-18 0 0 0 
1.31778e-18 -1.64723e-21 0 0 -1.31778e-18 0 0 0 
1.45199e-18 -3.44848e-20 0 0 -1.45199e-18 0 0 1.3393e-30 
1.46965e-18 -3.49042e-20 0 0 -1.46965e-18 0 0 0 
1.45325e-18 -3.45148e-20 0 0 -1.45325e-18 0 0 1.33596e-30 
1.6676e-18 -2.0845e-21 0 0 -1.6676e-18 0 0 0 
1.44437e-18 -3.43037e-20 0 0 -1.44437e-18 0 0 0 
1.54922e-18 -3.6794e-20 0 0 -1.54922e-18 0 0 0 
1.56849e-18 -3.72515e-20 0 0 -1.56849e-18 0 0 0 
1.55015e-18 -1.93769e-21 0 0 -1.55015e-18 0 0 0 
1.53279e-18 -3.64036e-20 0 0 -1.53279e-18 0 0 0 
1.50314e-18 -3.56995e-20 0 0 -1.50314e-18 0 0 0 
1.4751e-18 -3.50336e-20 0 0 -1.4751e-18 0 0 0 
1.65559e-18 -2.06951e-21 0 0 -1.65559e-18 0 0 0 
1.4732e-18 -3.49886e-20 0 0 -1.4732e-18 0 0 0 
1.39794e-18 -3.40749e-20 0 0 -1.39794e-18 0 0 1.29079e-30 
1.60484e-18 -2.00606e-21 0 0 -1.60484e-18 0 0 0 
1.39886e-18 -3.3223e-20 0 0 -1.39886e-18 0 0 0 
1.49275e-18 -3.54529e-20 0 0 -1.49275e-18 0 0 0 
1.6381e-18 -2.04763e-21 0 0 -1.6381e-18 0 0 0 
1.4468e-18 -3.43615e-20 0 0 -1.4468e-18 0 0 0 
1.42563e-18 -3.38588e-20 0 0 -1.42563e-18 0 0 0 
1.48322e-18 -1.85402e-21 0 0 -1.48322e-18 0 0 0 
1.45253e-18 -3.44976e-20 0 0 -1.45253e-18 0 0 0 
1.41724e-18 -3.36595e-20 0 0 -1.41724e-18 0 0 0 
1.32898e-18 -1.66122e-21 0 0 -1.32898e-18 0 0 0 
1.62803e-18 -2.03505e-21 0 0 -1.62803e-18 0 0 0 
1.5115e-18 -3.58981e-20 0 0 -1.5115e-18 0 0 0 
1.50052e-18 -3.56373e-20 0 0 -1.50052e-18 0 0 0 
1.50173e-18 -1.87717e-21 0 0 -1.50173e-18 0 0 0 
1.45209e-18 -3.44871e-20 0 0 -1.45209e-18 0 0 0 
1.43763e-18 -3.41438e-20 0 0 -1.43763e-18 0 0 0 
1.50123e-18 -3.56543e-20 0 0 -1.50123e-18 0 0 0 
1.50701e-18 -3.57914e-20 0 0 -1.50701e-18 0 0 0 
1.50105e-18 -3.56499e-20 0 0 -1.50105e-18 0 0 0 
1.48538e-18 -3.62062e-20 0 0 -1.48538e-18 0 0 0 
1.45637e-18 -3.64095e-20 0 0 -1.45637e-18 0 0 0 
1.48893e-18 -3.72233e-20 0 0 -1.48893e-18 0 0 0 
1.4012e-18 -3.50299e-20 0 0 -1.4012e-18 0 0 0 
1.40268e-18 -3.50672e-20 0 0 -1.40268e-18 0 0 0 
1.46529e-18 -1.26015e-18 0 0 -1.46529e-18 0 0 1.35147e-30 
1.46238e-18 -6.94632e-19 0 0 -1.46238e-18 0 0 1.3479e-30 
1.4594e-18 -6.93215e-19 0 0 -1.4594e-18 0 0 0 
1.45707e-18 -6.9211e-19 0 0 -1.45707e-18 0 0 0 
1.46087e-18 -7.12174e-19 0 0 -1.46087e-18 0 0 0 
1.4675e-18 -1.26205e-18 0 0 -1.4675e-18 0 0 1.35266e-30 
1.47173e-18 -6.99071e-19 0 0 -1.47173e-18 0 0 0 
1.46627e-18 -6.96477e-19 0 0 -1.46627e-18 0 0 0 
1.47021e-18 -6.98352e-19 0 0 -1.47021e-18 0 0 0 
1.468e-18 -7.1565e-19 0 0 -1.468e-18 0 0 0 
1.47249e-18 -3.68124e-20 0 0 -1.47249e-18 0 0 1.35678e-30 
1.39936e-18 -3.4984e-20 0 0 -1.39936e-18 0 0 0 
1.51754e-18 -3.79386e-20 0 0 -1.51754e-18 0 0 1.39718e-30 
4.40027e-21 0 0 -2.57416e-20 0 0 -4.40027e-21 0 
2.6925e-20 3.36563e-23 0 0 2.6925e-20 0 0 0 
3.76457e-20 8.94087e-22 0 0 3.76457e-20 0 0 0 
1.08237e-20 1.35298e-23 0 0 1.08237e-20 0 0 0 
3.08708e-20 7.3318e-22 0 0 3.08708e-20 0 0 0 
6.3941e-20 1.5186e-21 0 0 6.3941e-20 0 0 0 
1.80574e-20 4.28865e-22 0 0 1.80574e-20 0 0 0 
5.76697e-20 1.36966e-21 0 0 5.76697e-20 0 0 0 
2.06037e-20 4.89337e-22 0 0 2.06037e-20 0 0 0 
5.91921e-20 1.40581e-21 0 0 5.91921e-20 0 0 0 
6.6626e-20 8.12005e-22 0 0 6.6626e-20 0 0 0 
1.90456e-20 4.52336e-22 0 0 1.90456e-20 0 0 1.74108e-32 
3.15478e-20 7.49262e-22 0 0 3.15478e-20 0 0 0 
2.62007e-20 6.22267e-22 0 0 2.62007e-20 0 0 0 
6.74892e-20 1.60287e-21 0 0 6.74892e-20 0 0 0 
2.8798e-20 6.83953e-22 0 0 2.8798e-20 0 0 0 
4.22499e-20 1.00343e-21 0 0 4.22499e-20 0 0 0 
5.18699e-20 1.23191e-21 0 0 5.18699e-20 0 0 0 
2.01592e-20 2.5199e-23 0 0 2.01592e-20 0 0 0 
4.71496e-20 1.11981e-21 0 0 4.71496e-20 0 0 0 
2.68508e-20 6.37705e-22 0 0 2.68508e-20 0 0 0 
1.96845e-20 2.46057e-23 0 0 1.96845e-20 0 0 0 
2.93338e-20 6.96677e-22 0 0 2.93338e-20 0 0 0 
3.92861e-20 9.33045e-22 0 0 3.92861e-20 0 0 0 
1.3768e-20 1.721e-23 0 0 1.3768e-20 0 0 0 
1.71018e-20 4.06169e-22 0 0 1.71018e-20 0 0 0 
1.55912e-20 3.70291e-22 0 0 1.55912e-20 0 0 0 
5.20545e-20 6.50681e-23 0 0 5.20545e-20 0 0 0 
1.78567e-20 2.2321e-23 0 0 1.78567e-20 0 0 0 
2.26063e-20 5.36899e-22 0 0 2.26063e-20 0 0 0 
2.40187e-20 5.70445e-22 0 0 2.40187e-20 0 0 0 
3.74581e-20 8.89631e-22 0 0 3.74581e-20 0 0 0 
3.98061e-20 9.45394e-22 0 0 3.98061e-20 0 0 0 
0 0 0 0 0 0 0 0 
2.19067e-20 5.20285e-22 0 0 2.19067e-20 0 0 0 
2.35733e-20 5.59864e-22 0 0 2.35733e-20 0 0 0 
5.8181e-21 7.27264e-24 0 0 5.8181e-21 0 0 0 
4.9017e-20 6.12714e-23 0 0 4.9017e-20 0 0 0 
3.5196e-20 8.35904e-22 0 0 3.5196e-20 0 0 0 
2.90322e-20 6.89515e-22 0 0 2.90322e-20 0 0 0 
3.36381e-20 7.98906e-22 0 0 3.36381e-20 0 0 0 
1.68438e-20 2.10548e-23 0 0 1.68438e-20 0 0 0 
2.64223e-20 6.27528e-22 0 0 2.64223e-20 0 0 0 
2.82021e-20 6.69801e-22 0 0 2.82021e-20 0 0 0 
4.80937e-20 6.01171e-23 0 0 4.80937e-20 0 0 0 
6.23363e-20 1.48049e-21 0 0 6.23363e-20 0 0 0 
3.22205e-20 7.65236e-22 0 0 3.22205e-20 0 0 0 
4.50925e-20 1.07095e-21 0 0 4.50925e-20 0 0 0 
2.77614e-20 3.47018e-23 0 0 2.77614e-20 0 0 0 
1.01898e-20 2.48377e-22 0 0 1.01898e-20 0 0 0 
2.87976e-20 3.59972e-23 0 0 2.87976e-20 0 0 0 
3.7366e-20 9.10794e-22 0 0 3.7366e-20 0 0 3.42194e-32 
5.18731e-20 1.23199e-21 0 0 5.18731e-20 0 0 0 
5.06871e-20 1.2355e-21 0 0 5.06871e-20 0 0 0 
5.57019e-20 1.35773e-21 0 0 5.57019e-20 0 0 5.1823e-32 
3.60523e-20 8.56245e-22 0 0 3.60523e-20 0 0 0 
0 0 0 0 0 0 0 0 
1.6463e-20 4.01287e-22 0 0 1.6463e-20 0 0 0 
2.07689e-20 2.59613e-23 0 0 2.07689e-20 0 0 0 
2.89139e-20 3.61426e-23 0 0 2.89139e-20 0 0 0 
5.59334e-20 6.99169e-23 0 0 5.59334e-20 0 0 0 
6.49117e-20 8.11399e-23 0 0 6.49117e-20 0 0 0 
3.29013e-21 4.11268e-24 0 0 3.29013e-21 0 0 0 
5.3106e-21 6.6383e-24 0 0 5.3106e-21 0 0 0 
2.27435e-20 5.54374e-22 0 0 2.27435e-20 0 0 0 
4.20663e-20 9.99079e-22 0 0 4.20663e-20 0 0 0 
5.97831e-20 7.47291e-23 0 0 5.97831e-20 0 0 0 
3.70366e-20 9.02767e-22 0 0 3.70366e-20 0 0 0 
4.1695e-20 9.90261e-22 0 0 4.1695e-20 0 0 0 
3.19114e-20 3.98894e-23 0 0 3.19114e-20 0 0 0 
3.78467e-20 9.22513e-22 0 0 3.78467e-20 0 0 0 
1.5583e-20 3.70098e-22 0 0 1.5583e-20 0 0 1.3873e-32 
1.85929e-20 4.53203e-22 0 0 1.85929e-20 0 0 0 
1.45025e-20 3.44435e-22 0 0 1.45025e-20 0 0 1.30581e-32 
3.09542e-20 7.35166e-22 0 0 3.09542e-20 0 0 0 
6.70215e-20 1.59177e-21 0 0 6.70215e-20 0 0 0 
5.44182e-20 1.29244e-21 0 0 5.44182e-20 0 0 0 
1.95128e-20 4.63431e-22 0 0 1.95128e-20 0 0 0 
1.65457e-20 3.92961e-22 0 0 1.65457e-20 0 0 1.49065e-32 
3.95424e-20 9.63844e-22 0 0 3.95424e-20 0 0 3.56719e-32 
1.8228e-20 4.44309e-22 0 0 1.8228e-20 0 0 0 
9.90197e-20 6.18875e-23 0 0 9.90197e-20 0 0 0 
3.80929e-20 4.64257e-22 0 0 3.80929e-20 0 0 0 
3.63083e-19 -3.81234e-19 -4.66915e-19 -4.66915e-19 -1.81541e-19 -2.22342e-19 -2.22342e-19 -1.22278e-31 
4.0104e-21 0 0 -5.93053e-19 0 0 -4.0104e-21 0 
2.71701e-21 0 5.50428e-19 -5.50428e-19 0 1.92121e-21 -1.92121e-21 -1.40486e-34 
3.62776e-19 -3.80913e-19 4.66521e-19 4.66521e-19 -1.81388e-19 2.22154e-19 2.22154e-19 -1.22984e-31 
4.00823e-21 0 0 5.92732e-19 0 0 4.00823e-21 0 
3.12151e-21 0 -2.84734e-19 2.84734e-19 0 -2.20724e-21 2.20724e-21 1.93023e-34 
4.93104e-21 0 -2.88466e-20 0 0 -4.93104e-21 0 0 
4.94076e-21 0 2.89034e-20 0 0 4.94076e-21 0 0 
4.67523e-21 0 0 -2.66488e-20 0 0 -4.67523e-21 0 
4.80526e-21 0 0 2.739e-20 0 0 4.80526e-21 0 
4.7284e-21 0 0 -2.69519e-20 0 0 -4.7284e-21 0 
4.74216e-21 0 0 2.70303e-20 0 0 4.74216e-21 0 
4.99508e-21 0 0 2.8472e-20 0 0 4.99508e-21 0 
4.97202e-21 0 0 -2.83405e-20 0 0 -4.97202e-21 0 
4.54968e-21 0 0 -2.59332e-20 0 0 -4.54968e-21 0 
4.48758e-21 0 0 2.55792e-20 0 0 4.48758e-21 0 
4.70886e-21 0 0 -2.68405e-20 0 0 -4.70886e-21 0 
4.71904e-21 0 0 2.68985e-20 0 0 4.71904e-21 0 
4.98465e-21 0 -2.84125e-20 0 0 -4.98465e-21 0 0 
4.78958e-21 0 2.73006e-20 0 0 4.78958e-21 0 0 
5.20767e-21 0 0 -2.96837e-20 0 0 -5.20767e-21 0 
5.32935e-21 0 0 3.03773e-20 0 0 5.32935e-21 0 
5.23763e-21 0 -2.98545e-20 0 0 -5.23763e-21 0 0 
5.22335e-21 0 2.97731e-20 0 0 5.22335e-21 0 0 
5.04572e-21 0 -2.87606e-20 0 0 -5.04572e-21 0 0 
5.13185e-21 0 2.92515e-20 0 0 5.13185e-21 0 0 
5.31852e-21 0 3.11133e-20 0 0 5.31852e-21 0 0 
5.31799e-21 0 -3.11102e-20 0 0 -5.31799e-21 0 0 
5.17389e-21 0 3.02673e-20 0 0 5.17389e-21 0 0 
5.13237e-21 0 -3.00243e-20 0 0 -5.13237e-21 0 0 
4.88723e-21 0 -2.78572e-20 0 0 -4.88723e-21 0 0 
4.68706e-21 0 2.67162e-20 0 0 4.68706e-21 0 0 
4.37937e-21 0 2.56193e-20 0 0 4.37937e-21 0 0 
4.52159e-21 0 -1.32257e-20 0 0 -4.52159e-21 0 0 
4.41266e-21 0 0 1.2907e-20 0 0 4.41266e-21 0 
6.16194e-21 0 0 -3.51231e-20 0 0 -6.16194e-21 0 
5.8264e-21 0 0 3.32105e-20 0 0 5.8264e-21 0 
5.01047e-21 0 0 2.93112e-20 0 0 5.01047e-21 0 
4.89875e-21 0 0 -2.86577e-20 0 0 -4.89875e-21 0 
4.85483e-21 0 -2.76726e-20 0 0 -4.85483e-21 0 0 
4.78866e-21 0 2.72954e-20 0 0 4.78866e-21 0 0 
5.30336e-21 0 -3.02292e-20 0 0 -5.30336e-21 0 0 
5.19095e-21 0 2.95884e-20 0 0 5.19095e-21 0 0 
4.89718e-21 0 0 2.79139e-20 0 0 4.89718e-21 0 
5.03877e-21 0 0 -2.8721e-20 0 0 -5.03877e-21 0 
5.36736e-21 0 -3.05939e-20 0 0 -5.36736e-21 0 0 
5.20571e-21 0 2.96726e-20 0 0 5.20571e-21 0 0 
4.95565e-21 0 0 2.82472e-20 0 0 4.95565e-21 0 
5.07055e-21 0 0 -2.89022e-20 0 0 -5.07055e-21 0 
4.69273e-21 0 -2.67486e-20 0 0 -4.69273e-21 0 0 
4.6078e-21 0 2.62645e-20 0 0 4.6078e-21 0 0 
5.45625e-21 0 0 3.11006e-20 0 0 5.45625e-21 0 
5.70732e-21 0 0 -3.25317e-20 0 0 -5.70732e-21 0 
5.30495e-21 0 3.02382e-20 0 0 5.30495e-21 0 0 
5.31992e-21 0 -3.03235e-20 0 0 -5.31992e-21 0 0 
4.86224e-21 0 2.77148e-20 0 0 4.86224e-21 0 0 
4.7574e-21 0 -2.71172e-20 0 0 -4.7574e-21 0 0 
5.39621e-21 0 0 -3.07584e-20 0 0 -5.39621e-21 0 
5.29821e-21 0 0 3.01998e-20 0 0 5.29821e-21 0 
5.33444e-21 0 0 3.04063e-20 0 0 5.33444e-21 0 
5.14581e-21 0 0 -2.93311e-20 0 0 -5.14581e-21 0 
6.03059e-21 0 0 3.43743e-20 0 0 6.03059e-21 0 
5.34958e-21 0 0 -3.04926e-20 0 0 -5.34958e-21 0 
5.25464e-21 0 -2.99515e-20 0 0 -5.25464e-21 0 0 
5.13946e-21 0 2.9295e-20 0 0 5.13946e-21 0 0 
5.05476e-21 0 -2.88121e-20 0 0 -5.05476e-21 0 0 
4.96886e-21 0 2.83225e-20 0 0 4.96886e-21 0 0 
4.30097e-21 0 2.51607e-20 0 0 4.30097e-21 0 0 
4.3759e-21 0 0 -2.5599e-20 0 0 -4.3759e-21 0 
4.79623e-21 0 -2.8058e-20 0 0 -4.79623e-21 0 0 
4.8324e-21 0 2.82695e-20 0 0 4.8324e-21 0 0 
5.32401e-21 0 3.11454e-20 0 0 5.32401e-21 0 0 
5.25911e-21 0 -3.07658e-20 0 0 -5.25911e-21 0 0 
4.91476e-21 0 0 -2.87514e-20 0 0 -4.91476e-21 0 
5.00377e-21 0 0 2.9272e-20 0 0 5.00377e-21 0 
5.04265e-21 0 0 2.94995e-20 0 0 5.04265e-21 0 
5.00276e-21 0 0 -2.92662e-20 0 0 -5.00276e-21 0 
5.51338e-21 0 -3.14262e-20 0 0 -5.51338e-21 0 0 
5.82842e-21 0 3.3222e-20 0 0 5.82842e-21 0 0 
5.30792e-21 0 0 -3.10513e-20 0 0 -5.30792e-21 0 
5.373e-21 0 0 3.1432e-20 0 0 5.373e-21 0 
4.21936e-21 0 -1.23416e-20 0 0 -4.21936e-21 0 0 
5.13652e-21 0 -3.00487e-20 0 0 -5.13652e-21 0 0 
5.101e-21 0 2.98409e-20 0 0 5.101e-21 0 0 
4.75773e-21 0 -2.78327e-20 0 0 -4.75773e-21 0 0 
4.77092e-21 0 2.79099e-20 0 0 4.77092e-21 0 0 
4.88537e-21 0 -2.78466e-20 0 0 -4.88537e-21 0 0 
5.08409e-21 0 2.89793e-20 0 0 5.08409e-21 0 0 
5.02671e-21 0 0 -2.94063e-20 0 0 -5.02671e-21 0 
5.05458e-21 0 0 2.95693e-20 0 0 5.05458e-21 0 
5.61324e-21 0 3.19955e-20 0 0 5.61324e-21 0 0 
5.49956e-21 0 -3.13475e-20 0 0 -5.49956e-21 0 0 
4.76786e-21 0 0 2.71768e-20 0 0 4.76786e-21 0 
4.67619e-21 0 0 -2.66543e-20 0 0 -4.67619e-21 0 
4.34348e-21 0 0 2.54093e-20 0 0 4.34348e-21 0 
4.45219e-21 0 1.30227e-20 0 0 4.45219e-21 0 0 
5.18312e-21 0 -2.95438e-20 0 0 -5.18312e-21 0 0 
4.97934e-21 0 2.83822e-20 0 0 4.97934e-21 0 0 
4.9565e-21 0 2.82521e-20 0 0 4.9565e-21 0 0 
4.96726e-21 0 -2.83134e-20 0 0 -4.96726e-21 0 0 
4.66177e-21 0 2.65721e-20 0 0 4.66177e-21 0 0 
4.80986e-21 0 -2.74162e-20 0 0 -4.80986e-21 0 0 
4.7123e-21 0 0 -2.68601e-20 0 0 -4.7123e-21 0 
4.73772e-21 0 0 2.7005e-20 0 0 4.73772e-21 0 
5.55295e-21 0 3.16518e-20 0 0 5.55295e-21 0 0 
5.31762e-21 0 -3.03104e-20 0 0 -5.31762e-21 0 0 
4.72303e-21 0 0 -2.69212e-20 0 0 -4.72303e-21 0 
4.76961e-21 0 0 2.71868e-20 0 0 4.76961e-21 0 
4.75745e-21 0 2.71174e-20 0 0 4.75745e-21 0 0 
4.79472e-21 0 -2.73299e-20 0 0 -4.79472e-21 0 0 
4.9621e-21 0 -2.8284e-20 0 0 -4.9621e-21 0 0 
4.76828e-21 0 2.71792e-20 0 0 4.76828e-21 0 0 
4.82634e-21 0 0 -2.75101e-20 0 0 -4.82634e-21 0 
4.69208e-21 0 0 2.67449e-20 0 0 4.69208e-21 0 
4.87784e-21 0 0 -2.78037e-20 0 0 -4.87784e-21 0 
4.87964e-21 0 0 2.7814e-20 0 0 4.87964e-21 0 
4.57402e-21 0 0 2.60719e-20 0 0 4.57402e-21 0 
4.68766e-21 0 0 -2.67197e-20 0 0 -4.68766e-21 0 
4.59587e-21 0 -2.61965e-20 0 0 -4.59587e-21 0 0 
4.60792e-21 0 2.62651e-20 0 0 4.60792e-21 0 0 
4.47884e-21 0 0 2.55294e-20 0 0 4.47884e-21 0 
4.59942e-21 0 0 -2.62167e-20 0 0 -4.59942e-21 0 
4.77135e-21 0 0 -2.71967e-20 0 0 -4.77135e-21 0 
5.02106e-21 0 0 2.86201e-20 0 0 5.02106e-21 0 
4.9065e-21 0 2.79671e-20 0 0 4.9065e-21 0 0 
4.8983e-21 0 -2.79203e-20 0 0 -4.8983e-21 0 0 
4.62993e-21 0 -2.63906e-20 0 0 -4.62993e-21 0 0 
4.62457e-21 0 2.63601e-20 0 0 4.62457e-21 0 0 
4.748e-21 0 0 2.70636e-20 0 0 4.748e-21 0 
4.78022e-21 0 0 -2.72473e-20 0 0 -4.78022e-21 0 
4.99764e-21 0 2.84865e-20 0 0 4.99764e-21 0 0 
5.0955e-21 0 -2.90443e-20 0 0 -5.0955e-21 0 0 
4.79346e-21 0 0 2.73227e-20 0 0 4.79346e-21 0 
4.77871e-21 0 0 -2.72386e-20 0 0 -4.77871e-21 0 
5.92596e-21 -8.03183e-24 0 -4.22225e-21 -1.12727e-23 0 -5.92595e-21 -2.74281e-34 
1.24544e-20 -1.52682e-22 -5.13026e-23 -2.2945e-21 -8.26712e-22 -2.77783e-22 -1.24238e-20 6.05751e-34 
8.38346e-21 -6.00885e-23 -2.64333e-23 -1.5505e-21 -3.24603e-22 -1.42795e-22 -8.37595e-21 4.74302e-34 
1.49825e-20 -1.84507e-22 -1.23435e-22 -2.71131e-21 -1.01617e-21 -6.79814e-22 -1.49325e-20 -1.35968e-33 
6.23187e-21 -7.41668e-25 -2.22866e-27 -1.55797e-21 -2.96667e-24 -8.91463e-27 -6.23187e-21 -2.44895e-33 
6.6783e-21 -9.46143e-24 -4.96167e-23 -1.60411e-21 -3.93708e-23 -2.06464e-22 -6.67499e-21 7.26774e-35 
6.17223e-21 -1.09111e-23 -3.45243e-23 -9.94973e-22 -6.76411e-23 -2.14027e-22 -6.16815e-21 -5.70635e-34 
5.93207e-21 -1.93485e-23 -4.66613e-23 -1.07189e-21 -1.0696e-22 -2.57948e-22 -5.9255e-21 1.20037e-34 
8.66561e-21 -6.12e-23 -2.73229e-23 -1.60269e-21 -3.30615e-22 -1.47604e-22 -8.65804e-21 1.09908e-33 
7.39689e-21 -4.13516e-23 -6.99691e-23 -1.33029e-21 -2.29502e-22 -3.8833e-22 -7.38313e-21 -1.98322e-33 
9.02119e-21 -8.62194e-23 -6.59255e-23 -1.63941e-21 -4.73403e-22 -3.61976e-22 -9.00148e-21 5.18365e-34 
4.8267e-21 -7.51723e-24 -1.82835e-23 -1.5785e-21 -2.29842e-23 -5.59025e-23 -4.82632e-21 -3.47831e-34 
6.75532e-21 -1.95855e-23 -1.25958e-23 -1.11358e-21 -1.18786e-22 -7.63936e-23 -6.75384e-21 4.49479e-34 
8.24137e-21 -1.13285e-23 -3.91326e-23 -9.8748e-22 -9.44654e-23 -3.26318e-22 -8.23437e-21 -1.72408e-33 
5.46133e-21 -9.47626e-24 -1.54126e-23 -8.91891e-22 -5.80142e-23 -9.43566e-23 -5.4602e-21 8.84299e-34 
5.4567e-21 -1.73073e-24 0 -1.02313e-22 -9.22921e-23 0 -5.45592e-21 6.5447e-34 
6.51549e-21 -2.10561e-23 3.41672e-23 -1.19209e-21 -1.15019e-22 1.86639e-22 -6.5118e-21 -1.11135e-33 
5.90108e-21 -2.16245e-23 0 -2.10226e-21 -6.06973e-23 0 -5.90077e-21 4.90235e-34 
6.96664e-21 -8.87972e-25 2.23559e-23 -1.67826e-21 -3.68574e-24 9.27936e-23 -6.96602e-21 1.11877e-33 
6.22698e-21 -8.82203e-24 4.62636e-23 -1.4957e-21 -3.67101e-23 1.92511e-22 -6.22389e-21 -5.83383e-34 
1.01797e-20 -9.74066e-23 8.38666e-23 -1.84218e-21 -5.36955e-22 4.62316e-22 -1.0155e-20 5.17825e-34 
7.28123e-21 -5.14896e-23 2.66054e-23 -1.34422e-21 -2.78645e-22 1.4398e-22 -7.27447e-21 -6.00315e-34 
9.29996e-21 -8.047e-23 1.01945e-22 -1.66324e-21 -4.48581e-22 5.68291e-22 -9.27174e-21 1.7183e-33 
6.31284e-21 -3.1571e-23 3.98097e-23 -1.15144e-21 -1.72922e-22 2.18047e-22 -6.30671e-21 -3.05087e-34 
7.13076e-21 -1.38801e-23 3.98858e-23 -1.14949e-21 -8.60459e-23 2.47261e-22 -7.12596e-21 1.53045e-33 
6.21572e-21 -1.07671e-23 1.15897e-23 -1.02463e-21 -6.53087e-23 7.02985e-23 -6.21498e-21 -1.74656e-34 
7.10229e-21 -6.63882e-23 0 -2.53019e-21 -1.86289e-22 0 -7.09984e-21 2.14846e-33 
5.86407e-21 -1.99031e-24 0 -4.17815e-21 -2.79341e-24 0 -5.86407e-21 6.68477e-34 
5.72019e-21 -9.42005e-24 3.36001e-23 -1.3913e-21 -3.87176e-23 1.38101e-22 -5.71839e-21 2.44459e-34 
1.19406e-20 -1.42078e-22 0 -2.18289e-21 -7.7554e-22 0 -1.19154e-20 -1.1595e-33 
6.72372e-21 -9.11308e-24 4.79065e-21 0 -1.27903e-23 6.72371e-21 0 -4.58459e-34 
1.35137e-20 -1.65669e-22 2.48966e-21 -5.56662e-23 -8.97028e-22 1.34805e-20 -3.0141e-22 1.48243e-34 
7.5554e-21 -5.41534e-23 1.39736e-21 -2.38224e-23 -2.92541e-22 7.54864e-21 -1.28691e-22 -3.69751e-34 
1.56027e-20 -1.92144e-22 2.82354e-21 -1.28544e-22 -1.05823e-21 1.55506e-20 -7.07953e-22 -6.31743e-34 
5.23293e-21 -6.22782e-25 1.30823e-21 -1.87142e-27 -2.49113e-24 5.23293e-21 -7.48566e-27 9.62965e-34 
6.96801e-21 -9.87188e-24 1.6737e-21 -5.17691e-23 -4.10787e-23 6.96456e-21 -2.15421e-22 4.63564e-34 
5.31698e-21 -9.39917e-24 8.57105e-22 -2.97404e-23 -5.82684e-23 5.31346e-21 -1.8437e-22 -4.12613e-34 
7.65312e-21 -2.49619e-23 1.38287e-21 -6.01989e-23 -1.37992e-22 7.64463e-21 -3.32786e-22 -3.99253e-34 
7.74462e-21 -5.46956e-23 1.43235e-21 -2.4419e-23 -2.95477e-22 7.73785e-21 -1.31916e-22 9.38424e-34 
9.07467e-21 -5.07311e-23 1.63203e-21 -8.58396e-23 -2.81558e-22 9.05778e-21 -4.76411e-22 -2.26092e-33 
1.00347e-20 -9.59061e-23 1.8236e-21 -7.33323e-23 -5.26589e-22 1.00128e-20 -4.02644e-22 2.25489e-34 
5.23017e-21 -8.14561e-24 1.71045e-21 -1.98119e-23 -2.49055e-23 5.22976e-21 -6.05754e-23 1.94843e-34 
5.49588e-21 -1.59341e-23 9.05968e-22 -1.02475e-23 -9.66397e-23 5.49468e-21 -6.2151e-23 3.40688e-34 
6.96179e-21 -9.56956e-24 8.34161e-22 -3.30568e-23 -7.97984e-23 6.95587e-21 -2.75653e-22 -2.64516e-33 
5.09045e-21 -8.83273e-24 8.31323e-22 -1.43659e-23 -5.40745e-23 5.0894e-21 -8.79489e-23 9.56545e-34 
3.38786e-21 -1.07454e-24 6.35224e-23 0 -5.73007e-23 3.38737e-21 0 4.02751e-34 
6.08497e-21 -1.96648e-23 1.11332e-21 3.19095e-23 -1.07419e-22 6.08153e-21 1.74306e-22 -7.96767e-34 
5.80799e-21 -2.12834e-23 2.0691e-21 0 -5.97397e-23 5.80768e-21 0 2.04044e-34 
6.06865e-21 -7.73514e-25 1.46193e-21 1.94743e-23 -3.21065e-24 6.06811e-21 8.08326e-23 4.21254e-34 
6.64466e-21 -9.41377e-24 1.59603e-21 4.93668e-23 -3.91725e-23 6.64137e-21 2.05424e-22 -1.3573e-33 
1.04277e-20 -9.97789e-23 1.88705e-21 8.59092e-23 -5.50033e-22 1.04024e-20 4.73576e-22 7.72835e-34 
7.00047e-21 -4.95043e-23 1.29239e-21 2.55795e-23 -2.679e-22 6.99398e-21 1.38428e-22 2.43447e-33 
1.01143e-20 -8.75166e-23 1.80888e-21 1.10872e-22 -4.87862e-22 1.00836e-20 6.18055e-22 8.73625e-34 
8.37788e-21 -4.18983e-23 1.52809e-21 5.28321e-23 -2.29487e-22 8.36973e-21 2.89374e-22 -9.17847e-34 
7.85111e-21 -1.52822e-23 1.26561e-21 4.3915e-23 -9.47382e-23 7.84582e-21 2.7224e-22 1.65921e-33 
6.46817e-21 -1.12044e-23 1.06625e-21 1.20604e-23 -6.79612e-23 6.4674e-21 7.31537e-23 2.86321e-36 
7.2979e-21 -6.82167e-23 2.59988e-21 0 -1.9142e-22 7.29539e-21 0 1.75903e-33 
5.76092e-21 -1.9553e-24 4.10466e-21 0 -2.74427e-24 5.76092e-21 0 7.33404e-34 
5.82726e-21 -9.59636e-24 1.41734e-21 3.4229e-23 -3.94422e-23 5.82542e-21 1.40685e-22 -1.92075e-34 
1.34312e-20 -1.59814e-22 2.45539e-21 0 -8.72353e-22 1.34028e-20 0 -1.0822e-33 
6.16255e-21 -8.35248e-24 0 4.39082e-21 -1.17228e-23 0 6.16254e-21 -3.97508e-34 
1.25487e-20 -1.53838e-22 5.16911e-23 2.31188e-21 -8.32971e-22 2.79886e-22 1.25179e-20 -5.23962e-34 
7.83772e-21 -5.61769e-23 2.47125e-23 1.44957e-21 -3.03472e-22 1.33499e-22 7.83071e-21 -2.95801e-34 
1.53763e-20 -1.89356e-22 1.26679e-22 2.78257e-21 -1.04288e-21 6.97682e-22 1.5325e-20 -2.75575e-34 
5.93686e-21 -7.06558e-25 2.12316e-27 1.48422e-21 -2.82623e-24 8.49262e-27 5.93686e-21 7.08062e-34 
6.65839e-21 -9.43322e-24 4.94687e-23 1.59932e-21 -3.92534e-23 2.05849e-22 6.65509e-21 2.71067e-34 
5.23286e-21 -9.25047e-24 2.92699e-23 8.43545e-22 -5.73466e-23 1.81453e-22 5.2294e-21 -2.6337e-34 
5.96292e-21 -1.94491e-23 4.6904e-23 1.07746e-21 -1.07516e-22 2.5929e-22 5.95631e-21 -6.52374e-35 
8.36355e-21 -5.90668e-23 2.63705e-23 1.54682e-21 -3.19091e-22 1.42459e-22 8.35625e-21 9.79225e-34 
7.08095e-21 -3.95854e-23 6.69805e-23 1.27347e-21 -2.19699e-22 3.71743e-22 7.06777e-21 -1.56666e-33 
9.41954e-21 -9.00266e-23 6.88366e-23 1.7118e-21 -4.94307e-22 3.7796e-22 9.39896e-21 -3.08427e-34 
5.89482e-21 -9.18075e-24 2.23295e-23 1.92781e-21 -2.80704e-23 6.82733e-23 5.89436e-21 -2.22266e-34 
6.28067e-21 -1.82094e-23 1.17108e-23 1.03534e-21 -1.1044e-22 7.1026e-23 6.2793e-21 2.51937e-34 
8.61621e-21 -1.18437e-23 4.09125e-23 1.03239e-21 -9.87618e-23 3.4116e-22 8.60888e-21 -2.19643e-33 
6.41438e-21 -1.113e-23 1.81022e-23 1.04753e-21 -6.81382e-23 1.10823e-22 6.41306e-21 1.88997e-33 
5.6222e-21 -1.78322e-24 0 1.05416e-22 -9.50913e-23 0 5.6214e-21 -5.53782e-34 
5.86513e-21 -1.89543e-23 -3.07567e-23 1.0731e-21 -1.03538e-22 -1.68009e-22 5.86181e-21 -8.74123e-34 
5.69628e-21 -2.0874e-23 0 2.0293e-21 -5.85907e-23 0 5.69598e-21 7.02228e-35 
6.78473e-21 -8.64786e-25 -2.17722e-23 1.63444e-21 -3.5895e-24 -9.03706e-23 6.78413e-21 9.62027e-34 
5.79524e-21 -8.21037e-24 -4.3056e-23 1.392e-21 -3.41649e-23 -1.79164e-22 5.79237e-21 -1.13141e-33 
1.03332e-20 -9.88749e-23 -8.51308e-23 1.86995e-21 -5.45049e-22 -4.69285e-22 1.03081e-20 -9.10748e-35 
7.65953e-21 -5.41648e-23 -2.79877e-23 1.41406e-21 -2.93122e-22 -1.5146e-22 7.65242e-21 -9.8094e-34 
9.65248e-21 -8.35203e-23 -1.05809e-22 1.72629e-21 -4.65584e-22 -5.89833e-22 9.62319e-21 2.69455e-33 
7.23128e-21 -3.61641e-23 -4.56015e-23 1.31896e-21 -1.9808e-22 -2.4977e-22 7.22425e-21 -1.57198e-33 
7.0422e-21 -1.37077e-23 -3.93904e-23 1.13521e-21 -8.49772e-23 -2.4419e-22 7.03745e-21 1.26123e-33 
5.62083e-21 -9.7366e-24 -1.04805e-23 9.26566e-22 -5.90582e-23 -6.35704e-23 5.62017e-21 -1.37434e-34 
6.92504e-21 -6.47314e-23 0 2.46705e-21 -1.8164e-22 0 6.92266e-21 2.43854e-33 
6.09919e-21 -2.07011e-24 0 4.34567e-21 -2.90541e-24 0 6.09919e-21 5.43262e-34 
6.0007e-21 -9.88198e-24 -3.52478e-23 1.45952e-21 -4.06162e-23 -1.44873e-22 5.99881e-21 -4.46234e-35 
1.18833e-20 -1.41396e-22 0 2.17241e-21 -7.71816e-22 0 1.18582e-20 -9.1729e-34 
6.16969e-21 -8.36216e-24 -4.3959e-21 0 -1.17363e-23 -6.16968e-21 0 -1.23227e-34 
1.29747e-20 -1.59061e-22 -2.39037e-21 5.34461e-23 -8.61252e-22 -1.29429e-20 2.89389e-22 8.53675e-34 
6.98532e-21 -5.00673e-23 -1.29192e-21 2.20249e-23 -2.70468e-22 -6.97907e-21 1.1898e-22 1.1985e-34 
1.65427e-20 -2.0372e-22 -2.99365e-21 1.36288e-22 -1.12199e-21 -1.64875e-20 7.50605e-22 -1.1127e-33 
5.16935e-21 -6.15215e-25 -1.29234e-21 1.84868e-27 -2.46086e-24 -5.16935e-21 7.3947e-27 8.74221e-34 
5.78486e-21 -8.19565e-24 -1.38951e-21 4.29788e-23 -3.41036e-23 -5.78199e-21 1.78843e-22 3.61423e-34 
6.04224e-21 -1.06813e-23 -9.74018e-22 3.37971e-23 -6.62165e-23 -6.03824e-21 2.09519e-22 -5.41372e-34 
6.43997e-21 -2.1005e-23 -1.16366e-21 5.06564e-23 -1.16118e-22 -6.43283e-21 2.80034e-22 -4.69709e-35 
8.18703e-21 -5.78201e-23 -1.51418e-21 2.58139e-23 -3.12356e-22 -8.17988e-21 1.39452e-22 9.28223e-34 
9.56209e-21 -5.34559e-23 -1.71969e-21 9.04502e-23 -2.96681e-22 -9.54429e-21 5.02e-22 -2.97614e-33 
9.50237e-21 -9.08182e-23 -1.72686e-21 6.94419e-23 -4.98653e-22 -9.48161e-21 3.81283e-22 -1.5551e-35 
5.02774e-21 -7.83034e-24 -1.64425e-21 1.90451e-23 -2.39415e-23 -5.02735e-21 5.82309e-23 -1.11133e-34 
5.46446e-21 -1.5843e-23 -9.00789e-22 1.01889e-23 -9.60873e-23 -5.46327e-21 6.17957e-23 6.58473e-34 
8.7263e-21 -1.1995e-23 -1.04558e-21 4.14352e-23 -1.00024e-22 -8.71889e-21 3.45519e-22 -2.46803e-33 
5.03325e-21 -8.73348e-24 -8.21981e-22 1.42045e-23 -5.34668e-23 -5.03221e-21 8.69606e-23 3.81462e-34 
2.58933e-21 -8.21271e-25 -4.85501e-23 0 -4.37948e-23 -2.58896e-21 0 8.05501e-34 
6.09904e-21 -1.97102e-23 -1.11589e-21 -3.19833e-23 -1.07667e-22 -6.09558e-21 -1.74709e-22 -1.12166e-33 
5.39849e-21 -1.97828e-23 -1.92321e-21 0 -5.55277e-23 -5.3982e-21 0 4.00138e-34 
7.24289e-21 -9.23184e-25 -1.74481e-21 -2.32424e-23 -3.83189e-24 -7.24225e-21 -9.64732e-23 9.77702e-34 
6.22162e-21 -8.81443e-24 -1.49441e-21 -4.62238e-23 -3.66785e-23 -6.21854e-21 -1.92346e-22 -1.03516e-33 
1.19086e-20 -1.1395e-22 -2.15505e-21 -9.81101e-23 -6.28149e-22 -1.18797e-20 -5.40833e-22 5.04815e-34 
7.06741e-21 -4.99776e-23 -1.30475e-21 -2.58241e-23 -2.70462e-22 -7.06085e-21 -1.39751e-22 1.69621e-33 
9.62735e-21 -8.33028e-23 -1.72179e-21 -1.05533e-22 -4.64372e-22 -9.59813e-21 -5.88296e-22 8.49942e-34 
8.64806e-21 -4.32495e-23 -1.57737e-21 -5.45359e-23 -2.36888e-22 -8.63965e-21 -2.98706e-22 -1.22811e-33 
6.71036e-21 -1.30618e-23 -1.08172e-21 -3.75343e-23 -8.0973e-23 -6.70584e-21 -2.32684e-22 1.65921e-33 
5.38299e-21 -9.32461e-24 -8.87359e-22 -1.0037e-23 -5.65592e-23 -5.38235e-21 -6.08805e-23 -5.75505e-34 
6.85911e-21 -6.41151e-23 -2.44356e-21 0 -1.7991e-22 -6.85675e-21 0 1.98686e-33 
5.99706e-21 -2.03544e-24 -4.2729e-21 0 -2.85676e-24 -5.99706e-21 0 4.24672e-34 
5.45205e-21 -8.97846e-24 -1.32608e-21 -3.2025e-23 -3.69026e-23 -5.45033e-21 -1.31627e-22 4.07431e-35 
1.21835e-20 -1.44969e-22 -2.2273e-21 0 -7.9132e-22 -1.21578e-20 0 -1.04355e-33 
4.87573e-20 0 -4.07286e-20 -4.07286e-20 0 -3.44766e-20 -3.44766e-20 2.41679e-32 
0 0 0 0 0 0 0 0 
0 0 0 0 0 0 0 0 
0 0 0 0 0 0 0 0 
0 0 0 0 0 0 0 0 
0 0 0 0 0 0 0 0 
0 0 0 0 0 0 0 0 
0 0 0 0 0 0 0 0 
0 0 0 0 0 0 0 0 
0 0 0 0 0 0 0 0 
0 0 0 0 0 0 0 0 
0 0 0 0 0 0 0 0 
0 0 0 0 0 0 0 0 
0 0 0 0 0 0 0 0 
0 0 0 0 0 0 0 0 
0 0 0 0 0 0 0 0 
0 0 0 0 0 0 0 0 
0 0 0 0 0 0 0 0 
0 0 0 0 0 0 0 0 
0 0 0 0 0 0 0 0 
0 0 0 0 0 0 0 0 
0 0 0 0 0 0 0 0 
0 0 0 0 0 0 0 0 
0 0 0 0 0 0 0 0 
0 0 0 0 0 0 0 0 
0 0 0 0 0 0 0 0 
0 0 0 0 0 0 0 0 
0 0 0 0 0 0 0 0 
0 0 0 0 0 0 0 0 
0 0 0 0 0 0 0 0 
0 0 0 0 0 0 0 0 
0 0 0 0 0 0 0 0 
0 0 0 0 0 0 0 0 
0 0 0 0 0 0 0 0 
0 0 0 0 0 0 0 0 
0 0 0 0 0 0 0 0 
0 0 0 0 0 0 0 0 
0 0 0 0 0 0 0 0 
0 0 0 0 0 0 0 0 
0 0 0 0 0 0 0 0 
0 0 0 0 0 0 0 0 
0 0 0 0 0 0 0 0 
0 0 0 0 0 0 0 0 
0 0 0 0 0 0 0 0 
0 0 0 0 0 0 0 0 
0 0 0 0 0 0 0 0 
0 0 0 0 0 0 0 0 
4.87444e-20 0 4.07178e-20 4.07178e-20 0 3.44675e-20 3.44675e-20 2.48025e-32 
5.3827e-20 -2.20264e-21 -3.33799e-22 -1.24303e-20 -9.38846e-21 -1.42277e-21 -5.29828e-20 -2.71924e-32 
5.82728e-20 -3.53933e-21 -1.29242e-21 -1.96269e-20 -1.03199e-20 -3.76842e-21 -5.72277e-20 -1.69473e-32 
4.51794e-20 -1.65332e-21 -2.90753e-22 -9.24658e-21 -7.94828e-21 -1.39779e-21 -4.44527e-20 -1.85858e-33 
9.41556e-20 -2.82814e-21 -2.25665e-21 -1.11808e-20 -2.26594e-20 -1.80806e-20 -8.9582e-20 -7.84022e-33 
1.05847e-19 -1.75468e-21 -1.03756e-21 -7.05611e-21 -2.52875e-20 -1.49527e-20 -1.01689e-19 -5.69394e-33 
1.06103e-19 -1.86574e-21 -7.38712e-22 -7.6691e-21 -2.49722e-20 -9.88736e-21 -1.02648e-19 9.72985e-33 
6.1184e-20 -1.002e-21 -3.66589e-22 -4.51872e-21 -1.3204e-20 -4.83082e-21 -5.95466e-20 6.37596e-33 
4.533e-20 -1.42353e-21 -3.98471e-22 -7.81951e-21 -8.10865e-21 -2.26975e-21 -4.45411e-20 -7.5287e-35 
4.93365e-20 -1.71852e-21 -4.60059e-22 -9.25609e-21 -8.99535e-21 -2.40811e-21 -4.84497e-20 -6.11285e-33 
5.10864e-20 -1.64202e-21 -7.24267e-22 -8.72896e-21 -9.41308e-21 -4.15194e-21 -5.00397e-20 1.72645e-33 
5.44999e-20 -1.81716e-21 -9.17575e-22 -9.27702e-21 -1.04272e-20 -5.26523e-21 -5.32334e-20 -1.35433e-34 
1.51761e-19 -3.51432e-21 -3.098e-21 -1.74635e-20 -2.94972e-20 -2.60028e-20 -1.46579e-19 4.66134e-32 
5.31061e-20 -1.99317e-21 -1.15207e-21 -9.96153e-21 -1.0353e-20 -5.9841e-21 -5.17423e-20 -3.07712e-33 
5.56944e-20 -1.21307e-21 -4.23448e-22 -5.97316e-21 -1.10579e-20 -3.85999e-21 -5.4449e-20 1.25302e-32 
5.67707e-20 -1.57077e-21 -8.47419e-22 -7.40147e-21 -1.17124e-20 -6.31875e-21 -5.51888e-20 -2.35824e-34 
8.21962e-20 -1.38141e-21 -6.54956e-22 -5.64086e-21 -1.94284e-20 -9.21142e-21 -7.93341e-20 -1.94851e-32 
6.41706e-20 -9.98763e-22 -4.39154e-22 -4.48164e-21 -1.3895e-20 -6.10961e-21 -6.23495e-20 -1.70483e-32 