ITEM: TIMESTEP
195
ITEM: NUMBER OF SURFS
6916
ITEM: BOX BOUNDS oo rr rr
-0.35 0.35
-0.25 0.25
-0.25 0.25
ITEM: SURFS f_save[1] f_save[2] f_save[3] f_save[4] f_save[5] f_save[6] f_save[7] f_save[8] 
8.73407 -6.55328e-05 0 0 -8.73407 0 0 0 
4.2157 -3.1631e-05 0 0 -4.2157 0 0 0 
0 0 0 0 0 0 0 0 
0.970294 -1.60254e-05 0.000291209 3.6181e-06 0 0.970294 0 120.625 
0.799938 -4.75049e-05 0.000240064 -1.53081e-05 0 0.799938 0 359.859 
0.859283 -2.75173e-05 -0.000257892 4.78059e-06 0 -0.859283 0 191.756 
1.07177 -3.99677e-05 -0.000321641 -3.78428e-06 0 -1.07177 0 259.351 
0 0 0 0 0 0 0 0 
0 0 0 0 0 0 0 0 
0 0 0 0 0 0 0 0 
0.301903 -5.12444e-05 1.89013e-06 0.000176613 0 0 0.301903 176.832 
0.348054 -1.83969e-05 -3.98119e-06 0.000203611 0 0 0.348054 73.8547 
0 0 0 0 0 0 0 0 
7.19316 -1.75334e-05 0 0 -7.19316 0 0 0 
0 0 0 0 0 0 0 0 
71.7095 -8.96373e-06 -1.56143e-06 2.68439e-07 -71.7095 0 0 97133.8 
0 0 0 0 0 0 0 0 
0 0 0 0 0 0 0 0 
7.66474 -1.86828e-05 0 0 -7.66474 0 0 0 
22.0735 -5.38041e-05 -1.12725e-07 -6.37486e-07 -22.0735 0 0 5467.71 
0 0 0 0 0 0 0 0 
0 0 0 0 0 0 0 0 
6.72856 -1.59804e-05 0 0 -6.72856 0 0 0 
4.78628 -1.13674e-05 0 0 -4.78628 0 0 0 
0 0 0 0 0 0 0 0 
0 0 0 0 0 0 0 0 
0 0 0 0 0 0 0 0 
0 0 0 0 0 0 0 0 
22.9056 -5.58325e-05 0 0 -22.9056 0 0 0 
17.9941 -4.38606e-05 0 0 -17.9941 0 0 0 
0 0 0 0 0 0 0 0 
124.166 -1.55209e-05 0 0 -124.166 0 0 0 
8.57225 -2.03591e-05 1.1289e-06 -3.69799e-07 -8.57225 0 0 6819.65 
20.2839 -4.81743e-05 1.43278e-08 -1.22191e-06 -20.2839 0 0 4901.65 
21.4335 -5.09046e-05 -1.14682e-06 -1.66181e-06 -21.4335 0 0 10501.4 
0 0 0 0 0 0 0 0 
8.4786 -2.01367e-05 7.27173e-07 6.67543e-07 -8.4786 0 0 5736.13 
0 0 0 0 0 0 0 0 
6.59065 -1.56528e-05 0 0 -6.59065 0 0 0 
21.1697 -5.0278e-05 0 0 -21.1697 0 0 0 
12.1745 -2.89147e-05 0 0 -12.1745 0 0 0 
25.1493 -5.97296e-05 0 0 -25.1493 0 0 0 
18.8431 -4.47525e-05 -9.2999e-07 -1.48422e-06 -18.8431 0 0 6399.99 
28.5003 -6.76882e-05 3.30948e-06 1.19257e-06 -28.5003 0 0 3107.05 
3.81509 -9.06084e-06 -9.96309e-07 1.24477e-06 -3.81509 0 0 6027.5 
0 0 0 0 0 0 0 0 
14.9477 -3.6435e-05 -5.46242e-07 1.21019e-07 -14.9477 0 0 5596.24 
2.29846 -5.60248e-06 -7.1919e-07 -3.32229e-07 -2.29846 0 0 4119.65 
20.3531 -4.96109e-05 0 0 -20.3531 0 0 0 
8.81876 -2.14958e-05 0 0 -8.81876 0 0 0 
14.2971 -3.48493e-05 0 0 -14.2971 0 0 0 
8.17167 -1.99185e-05 1.11516e-07 -1.72664e-07 -8.17167 0 0 7083.72 
21.3046 -5.05984e-05 0 0 -21.3046 0 0 0 
0 0 0 0 0 0 0 0 
13.4297 -3.18956e-05 0 0 -13.4297 0 0 0 
0 0 0 0 0 0 0 0 
11.8583 -2.81636e-05 0 0 -11.8583 0 0 0 
0 0 0 0 0 0 0 0 
7.52688 -1.78763e-05 0 0 -7.52688 0 0 0 
26.6899 -6.33885e-05 0 0 -26.6899 0 0 0 
6.42068 -1.56504e-05 0 0 -6.42068 0 0 0 
9.31165 -2.26972e-05 0 0 -9.31165 0 0 0 
12.7125 -3.09867e-05 0 0 -12.7125 0 0 0 
14.3389 -3.49512e-05 0 0 -14.3389 0 0 0 
0 0 0 0 0 0 0 0 
7.65505 -1.86592e-05 0 0 -7.65505 0 0 0 
6.35503 -1.54905e-05 0 0 -6.35503 0 0 0 
2.85797 -6.96633e-06 5.91726e-07 5.48471e-07 -2.85797 0 0 3921.17 
14.5657 -3.45936e-05 0 0 -14.5657 0 0 0 
6.97378 -1.65628e-05 -1.32156e-06 -2.83167e-06 -6.97378 0 0 10480.9 
13.185 -3.21386e-05 2.50508e-07 9.1569e-07 -13.185 0 0 6726.89 
4.56792 -1.11344e-05 0 0 -4.56792 0 0 0 
2.14323 -5.09015e-06 1.97013e-07 -3.69685e-07 -2.14323 0 0 3502.89 
7.27991 -1.72898e-05 0 0 -7.27991 0 0 0 
13.7007 -3.33954e-05 0 0 -13.7007 0 0 0 
6.97258 -1.69956e-05 -1.85701e-06 4.99338e-07 -6.97258 0 0 10534.4 
20.9372 -5.10345e-05 7.75878e-07 1.17654e-06 -20.9372 0 0 12052.4 
9.76104 -2.37926e-05 6.46839e-07 9.29271e-07 -9.76104 0 0 5325.43 
10.0351 -2.38333e-05 0 0 -10.0351 0 0 0 
20.7718 -4.93329e-05 0 0 -20.7718 0 0 0 
0 0 0 0 0 0 0 0 
11.6819 -2.77445e-05 0 0 -11.6819 0 0 0 
14.13 -3.35588e-05 0 0 -14.13 0 0 0 
8.94863 -2.1253e-05 -6.58992e-07 8.10767e-08 -8.94863 0 0 6171.74 
6.55138 -1.55596e-05 0 0 -6.55138 0 0 0 
6.96882 -1.6551e-05 0 0 -6.96882 0 0 0 
13.2722 -3.15215e-05 0 0 -13.2722 0 0 0 
7.17374 -1.70376e-05 0 0 -7.17374 0 0 0 
0 0 0 0 0 0 0 0 
13.0379 -3.17799e-05 0 0 -13.0379 0 0 0 
2.6038 -6.34679e-06 0 0 -2.6038 0 0 0 
26.0281 -6.34439e-05 0 0 -26.0281 0 0 0 
0 0 0 0 0 0 0 0 
1.75747 -4.174e-06 0 0 -1.75747 0 0 0 
19.7889 -4.82354e-05 0 0 -19.7889 0 0 0 
19.739 -4.8114e-05 1.4891e-06 8.759e-07 -19.739 0 0 10983.7 
22.1147 -5.25226e-05 -7.74164e-08 -8.97069e-07 -22.1147 0 0 5443.49 
16.678 -3.96103e-05 8.41959e-07 -3.84686e-07 -16.678 0 0 3055.54 
0 0 0 0 0 0 0 0 
0 0 0 0 0 0 0 0 
14.2987 -3.39595e-05 0 0 -14.2987 0 0 0 
20.6881 -4.91343e-05 3.61421e-06 3.09735e-07 -20.6881 0 0 11133 
3.57426 -8.48888e-06 5.98058e-07 6.18825e-07 -3.57426 0 0 5512.4 
14.0184 -3.32937e-05 0 0 -14.0184 0 0 0 
0 0 0 0 0 0 0 0 
0 0 0 0 0 0 0 0 
12.6952 -3.01511e-05 2.5736e-06 2.046e-07 -12.6952 0 0 10104.8 
0 0 0 0 0 0 0 0 
11.7923 -2.80068e-05 0 0 -11.7923 0 0 0 
4.26355 -1.01259e-05 -6.81028e-07 -1.09607e-06 -4.26355 0 0 6906.95 
0 0 0 0 0 0 0 0 
0 0 0 0 0 0 0 0 
21.8268 -5.18386e-05 0 0 -21.8268 0 0 0 
7.35755 -1.74742e-05 0 0 -7.35755 0 0 0 
0 0 0 0 0 0 0 0 
1.57353 -3.73714e-06 6.13206e-06 -7.69195e-07 -1.57353 0 0 3094.9 
0 0 0 0 0 0 0 0 
0 0 0 0 0 0 0 0 
15.3259 -3.63991e-05 8.9592e-07 3.9121e-06 -15.3259 0 0 3278.79 
6.69473 -1.59e-05 0 0 -6.69473 0 0 0 
13.0053 -3.08876e-05 0 0 -13.0053 0 0 0 
7.68372 -1.82489e-05 -5.305e-06 -1.93539e-06 -7.68372 0 0 4037.79 
0 0 0 0 0 0 0 0 
0 0 0 0 0 0 0 0 
3.64604 -8.65936e-06 -4.02325e-07 -1.20218e-06 -3.64604 0 0 5838.53 
5.01254 -1.19048e-05 0 0 -5.01254 0 0 0 
15.0763 -3.67486e-05 0 0 -15.0763 0 0 0 
6.98251 -1.70199e-05 0 0 -6.98251 0 0 0 
0 0 0 0 0 0 0 0 
0 0 0 0 0 0 0 0 
6.08532 -1.44527e-05 0 0 -6.08532 0 0 0 
6.78555 -1.61157e-05 0 0 -6.78555 0 0 0 
11.7929 -2.87453e-05 0 0 -11.7929 0 0 0 
18.3967 -4.48421e-05 0 0 -18.3967 0 0 0 
0 0 0 0 0 0 0 0 
0 0 0 0 0 0 0 0 
6.33455 -1.50446e-05 0 0 -6.33455 0 0 0 
7.37485 -1.75153e-05 0 0 -7.37485 0 0 0 
0 0 0 0 0 0 0 0 
26.8963 -6.55596e-05 0 0 -26.8963 0 0 0 
0 0 0 0 0 0 0 0 
0 0 0 0 0 0 0 0 
11.0639 -2.62767e-05 3.72363e-08 1.84398e-07 -11.0639 0 0 5934.76 
10.4633 -2.48503e-05 4.63742e-07 -1.43981e-07 -10.4633 0 0 4543.45 
0 0 0 0 0 0 0 0 
13.6346 -3.32344e-05 -8.12432e-07 -1.7914e-06 -13.6346 0 0 11792.6 
0 0 0 0 0 0 0 0 
0 0 0 0 0 0 0 0 
15.1568 -3.59975e-05 0 0 -15.1568 0 0 0 
6.92629 -1.645e-05 0 0 -6.92629 0 0 0 
26.1109 -6.36452e-05 0 0 -26.1109 0 0 0 
26.1776 -6.38078e-05 5.46788e-07 -4.49899e-07 -26.1776 0 0 12520.4 
0 0 0 0 0 0 0 0 
0 0 0 0 0 0 0 0 
0 0 0 0 0 0 0 0 
6.24478 -1.48314e-05 0 0 -6.24478 0 0 0 
6.62229 -1.5728e-05 0 0 -6.62229 0 0 0 
8.81461 -2.09347e-05 0 0 -8.81461 0 0 0 
0 0 0 0 0 0 0 0 
0 0 0 0 0 0 0 0 
6.94506 -1.69286e-05 0 0 -6.94506 0 0 0 
19.7 -4.80186e-05 0 0 -19.7 0 0 0 
17.5053 -4.26692e-05 -3.58496e-07 9.47834e-07 -17.5053 0 0 5169.87 
0 0 0 0 0 0 0 0 
0 0 0 0 0 0 0 0 
0 0 0 0 0 0 0 0 
6.97423 -1.65639e-05 0 0 -6.97423 0 0 0 
8.53241 -2.02646e-05 -1.21612e-06 -2.16828e-06 -8.53241 0 0 1383.22 
9.08185 -2.15695e-05 9.49167e-07 -1.893e-07 -9.08185 0 0 3300.56 
10.0444 -2.38554e-05 0 0 -10.0444 0 0 0 
0 0 0 0 0 0 0 0 
0 0 0 0 0 0 0 0 
13.6398 -3.32471e-05 0 0 -13.6398 0 0 0 
0 0 0 0 0 0 0 0 
17.73 -4.21086e-05 9.20437e-07 -2.04962e-06 -17.73 0 0 9888.58 
4.39309 -1.04336e-05 0 0 -4.39309 0 0 0 
0 0 0 0 0 0 0 0 
0 0 0 0 0 0 0 0 
18.7178 -4.44548e-05 -5.5539e-07 9.59194e-08 -18.7178 0 0 5799.57 
0 0 0 0 0 0 0 0 
13.9623 -3.31606e-05 1.3795e-06 -9.74525e-08 -13.9623 0 0 6625.36 
7.43849 -1.76665e-05 0 0 -7.43849 0 0 0 
0 0 0 0 0 0 0 0 
0 0 0 0 0 0 0 0 
7.31204 -1.73661e-05 0 0 -7.31204 0 0 0 
21.5578 -5.11999e-05 0 0 -21.5578 0 0 0 
18.2592 -4.33655e-05 0 0 -18.2592 0 0 0 
7.29138 -1.7317e-05 0 0 -7.29138 0 0 0 
0 0 0 0 0 0 0 0 
0 0 0 0 0 0 0 0 
6.81904 -1.61953e-05 0 0 -6.81904 0 0 0 
4.04398 -9.6045e-06 4.9107e-07 3.05603e-07 -4.04398 0 0 6786.61 
0 0 0 0 0 0 0 0 
0 0 0 0 0 0 0 0 
27.4434 -6.51782e-05 0 0 -27.4434 0 0 0 
0 0 0 0 0 0 0 0 
0 0 0 0 0 0 0 0 
0 0 0 0 0 0 0 0 
6.95924 -1.69632e-05 0 0 -6.95924 0 0 0 
0 0 0 0 0 0 0 0 
19.4594 -4.62163e-05 0 0 -19.4594 0 0 0 
19.4456 -4.61835e-05 0 0 -19.4456 0 0 0 
128.209 -1.60262e-05 0 0 -128.209 0 0 0 
0 0 0 0 0 0 0 0 
0 0 0 0 0 0 0 0 
3.23103 -7.67369e-06 -1.49516e-06 -2.85482e-06 -3.23103 0 0 6438.71 
0 0 0 0 0 0 0 0 
0 0 0 0 0 0 0 0 
0 0 0 0 0 0 0 0 
0 0 0 0 0 0 0 0 
6.72271 -1.59665e-05 0 0 -6.72271 0 0 0 
14.9689 -3.5551e-05 -9.69438e-07 1.47898e-06 -14.9689 0 0 7324.72 
0 0 0 0 0 0 0 0 
0 0 0 0 0 0 0 0 
14.7667 -3.50708e-05 0 0 -14.7667 0 0 0 
13.6308 -3.23731e-05 0 0 -13.6308 0 0 0 
4.50353 -1.06959e-05 0 0 -4.50353 0 0 0 
0 0 0 0 0 0 0 0 
0 0 0 0 0 0 0 0 
0 0 0 0 0 0 0 0 
3.87981 -9.21455e-06 -2.31952e-06 3.53084e-07 -3.87981 0 0 7016.44 
0 0 0 0 0 0 0 0 
0 0 0 0 0 0 0 0 
0 0 0 0 0 0 0 0 
0 0 0 0 0 0 0 0 
24.4251 -5.80098e-05 1.38567e-07 -2.17769e-07 -24.4251 0 0 5401.9 
18.1605 -4.31314e-05 0 0 -18.1605 0 0 0 
8.1614 -1.93834e-05 -8.65308e-08 -1.25419e-06 -8.1614 0 0 15219 
0 0 0 0 0 0 0 0 
0 0 0 0 0 0 0 0 
21.4323 -5.09019e-05 0 0 -21.4323 0 0 0 
2.49269 -5.92015e-06 0 0 -2.49269 0 0 0 
6.71682 -1.59525e-05 0 0 -6.71682 0 0 0 
3.74591 -8.89657e-06 -1.01414e-06 5.7698e-07 -3.74591 0 0 6055.18 
0 0 0 0 0 0 0 0 
0 0 0 0 0 0 0 0 
4.45206 -1.05736e-05 1.16498e-06 6.18513e-07 -4.45206 0 0 5783.74 
1.1144 -2.6467e-06 -4.97882e-07 1.19677e-06 -1.1144 0 0 645.608 
0 0 0 0 0 0 0 0 
95.1834 -1.18979e-05 0 0 -95.1834 0 0 0 
20.8225 -4.94535e-05 0 0 -20.8225 0 0 0 
0 0 0 0 0 0 0 0 
4.77334 -1.1635e-05 0 0 -4.77334 0 0 0 
2.84663 -6.93867e-06 -1.65757e-06 1.70987e-06 -2.84663 0 0 4751.88 
0 0 0 0 0 0 0 0 
143.771 -1.79715e-05 0 0 -143.771 0 0 0 
7.28846 -1.73102e-05 -1.62628e-08 -5.47644e-08 -7.28846 0 0 1954.72 
0 0 0 0 0 0 0 0 
2.13567 -5.07223e-06 0 0 -2.13567 0 0 0 
19.6396 -4.66442e-05 0 0 -19.6396 0 0 0 
0 0 0 0 0 0 0 0 
0 0 0 0 0 0 0 0 
0 0 0 0 0 0 0 0 
10.7233 -2.61381e-05 0 0 -10.7233 0 0 0 
4.78944 -1.1375e-05 0 0 -4.78944 0 0 0 
4.13226 -9.81418e-06 1.60782e-06 4.45299e-07 -4.13226 0 0 6513.67 
0 0 0 0 0 0 0 0 
0 0 0 0 0 0 0 0 
17.7025 -4.20435e-05 -1.94691e-09 -1.17588e-06 -17.7025 0 0 7573.56 
6.76452 -1.60658e-05 0 0 -6.76452 0 0 0 
16.549 -3.93038e-05 0 0 -16.549 0 0 0 
7.10444 -1.6873e-05 0 0 -7.10444 0 0 0 
0 0 0 0 0 0 0 0 
0 0 0 0 0 0 0 0 
2.79104 -6.62873e-06 7.41539e-07 -7.8841e-07 -2.79104 0 0 4150.24 
16.7952 -3.98887e-05 -5.78044e-07 9.50667e-07 -16.7952 0 0 6327.71 
10.7108 -2.54383e-05 -9.43954e-07 -5.33166e-07 -10.7108 0 0 7090.22 
2.39162 -5.68012e-06 4.35489e-07 -5.04279e-07 -2.39162 0 0 3941.54 
0 0 0 0 0 0 0 0 
0 0 0 0 0 0 0 0 
10.5253 -2.49977e-05 0 0 -10.5253 0 0 0 
10.8469 -2.57613e-05 -6.06007e-08 -7.1935e-07 -10.8469 0 0 5841.82 
7.04986 -1.67435e-05 0 0 -7.04986 0 0 0 
6.98856 -1.65979e-05 0 0 -6.98856 0 0 0 
137.342 -1.71679e-05 0 0 -137.342 0 0 0 
0 0 0 0 0 0 0 0 
7.14577 -1.69712e-05 6.42243e-07 -4.48688e-07 -7.14577 0 0 5187.81 
6.94278 -1.64891e-05 0 0 -6.94278 0 0 0 
7.0759 -1.68053e-05 0 0 -7.0759 0 0 0 
17.6853 -4.20027e-05 -3.52535e-07 -7.57678e-07 -17.6853 0 0 4711.14 
0 0 0 0 0 0 0 0 
0 0 0 0 0 0 0 0 
0 0 0 0 0 0 0 0 
1.06313 -2.52495e-06 0 0 -1.06313 0 0 0 
6.71639 -1.59514e-05 0 0 -6.71639 0 0 0 
3.80387 -9.03419e-06 2.52764e-07 5.18157e-07 -3.80387 0 0 6254.19 
0 0 0 0 0 0 0 0 
0 0 0 0 0 0 0 0 
4.63657 -1.10119e-05 0 0 -4.63657 0 0 0 
20.7317 -4.9238e-05 0 0 -20.7317 0 0 0 
0 0 0 0 0 0 0 0 
6.10259 -1.44937e-05 0 0 -6.10259 0 0 0 
0 0 0 0 0 0 0 0 
0 0 0 0 0 0 0 0 
16.305 -3.87242e-05 -3.59155e-07 7.50017e-07 -16.305 0 0 3853.69 
9.84183 -2.33743e-05 4.99485e-07 5.13444e-07 -9.84183 0 0 3418.07 
0 0 0 0 0 0 0 0 
0 0 0 0 0 0 0 0 
18.4592 -4.38407e-05 0 0 -18.4592 0 0 0 
16.9376 -4.02269e-05 0 0 -16.9376 0 0 0 
0 0 0 0 0 0 0 0 
12.0601 -2.86428e-05 0 0 -12.0601 0 0 0 
80.734 -1.00918e-05 -3.91734e-07 -6.93771e-07 -80.734 0 0 131668 
0 0 0 0 0 0 0 0 
7.77395 -1.84631e-05 -4.16378e-07 -1.36469e-06 -7.77395 0 0 11841.2 
13.9761 -3.31931e-05 0 0 -13.9761 0 0 0 
0 0 0 0 0 0 0 0 
21.5441 -5.11674e-05 0 0 -21.5441 0 0 0 
0 0 0 0 0 0 0 0 
0 0 0 0 0 0 0 0 
4.84573 -1.15086e-05 0 0 -4.84573 0 0 0 
22.1974 -5.27187e-05 -9.86541e-08 4.00928e-07 -22.1974 0 0 7553.21 
7.55641 -1.79465e-05 0 0 -7.55641 0 0 0 
7.32433 -1.73953e-05 0 0 -7.32433 0 0 0 
0 0 0 0 0 0 0 0 
0 0 0 0 0 0 0 0 
24.532 -5.82636e-05 0 0 -24.532 0 0 0 
13.3043 -3.15979e-05 0 0 -13.3043 0 0 0 
0 0 0 0 0 0 0 0 
0 0 0 0 0 0 0 0 
6.606 -1.56893e-05 0 0 -6.606 0 0 0 
20.259 -4.81153e-05 5.07288e-07 -8.58945e-07 -20.259 0 0 6336.26 
0 0 0 0 0 0 0 0 
0 0 0 0 0 0 0 0 
15.0374 -3.57139e-05 0 0 -15.0374 0 0 0 
6.63626 -1.57611e-05 0 0 -6.63626 0 0 0 
0 0 0 0 0 0 0 0 
127.123 -1.58903e-05 0 0 -127.123 0 0 0 
0 0 0 0 0 0 0 0 
12.3573 -2.93486e-05 -1.36155e-06 -6.95613e-07 -12.3573 0 0 9236.63 
0 0 0 0 0 0 0 0 
0 0 0 0 0 0 0 0 
13.8814 -3.38362e-05 0 0 -13.8814 0 0 0 
0 0 0 0 0 0 0 0 
9.22877 -0.00454913 6.12024e-06 -1.11129e-05 -9.22877 0 0 2046.14 
7.78106 -0.000379327 2.28458e-06 3.46297e-06 -7.78106 0 0 347.556 
13.2164 -3.3041e-05 0 0 -13.2164 0 0 0 
8.62615 -0.000409742 -1.49912e-06 2.27612e-06 -8.62615 0 0 1653.84 
12.4152 -3.10382e-05 0 0 -12.4152 0 0 0 
8.9034 -0.000422912 1.38749e-06 -2.30824e-06 -8.9034 0 0 1379.31 
7.28786 -1.82197e-05 -7.11855e-08 -3.91795e-07 -7.28786 0 0 5108.87 
8.46194 -0.000401942 -9.25195e-07 -9.47139e-07 -8.46194 0 0 1202.51 
29.8811 -7.47028e-05 1.40259e-06 -9.83919e-07 -29.8811 0 0 6068.95 
8.83993 -0.000419896 7.05936e-06 -1.11923e-05 -8.83993 0 0 1782.83 
5.14518 -1.2863e-05 2.48644e-07 1.20521e-07 -5.14518 0 0 3732.49 
12.3369 -0.000586002 5.02987e-06 7.33787e-07 -12.3369 0 0 4104.09 
1.12797 -2.81993e-06 0 0 -1.12797 0 0 0 
8.98199 -0.000426645 -5.31834e-07 -3.11102e-07 -8.98199 0 0 892 
33.8271 -8.45684e-05 0 0 -33.8271 0 0 3.03436e-11 
7.46744 -0.000364038 1.8445e-06 -1.49776e-07 -7.46744 0 0 2021.86 
8.84802 -0.00386092 -6.59093e-06 -7.09467e-06 -8.84802 0 0 1603.64 
7.06599 -0.000492576 -4.43502e-06 2.88371e-06 -7.06599 0 0 786.799 
12.2164 -0.00105061 -1.86458e-06 -4.65302e-07 -12.2164 0 0 2467.32 
11.1054 -0.000955063 -1.52832e-06 -2.54873e-06 -11.1054 0 0 2183.97 
9.60355 -0.000468173 -3.49621e-06 -4.21696e-08 -9.60355 0 0 1553.96 
12.775 -3.19375e-05 0 0 -12.775 0 0 0 
12.2853 -0.000583551 1.70283e-08 -5.73308e-07 -12.2853 0 0 2919.42 
5.92257 -1.48065e-05 -5.21641e-07 1.73915e-07 -5.92257 0 0 5270.01 
9.13532 -0.000433928 1.05744e-06 6.98598e-06 -9.13532 0 0 1792.05 
3.60715 -9.0179e-06 5.26436e-07 -6.27401e-07 -3.60715 0 0 3595.14 
13.0462 -0.000619695 -2.63649e-07 -2.99212e-06 -13.0462 0 0 1994.37 
18.8178 -4.70444e-05 0 0 -18.8178 0 0 0 
7.62004 -0.000361952 -1.24674e-06 1.15236e-06 -7.62004 0 0 998.769 
8.88617 -2.22155e-05 -4.74992e-07 2.46622e-07 -8.88617 0 0 5154.22 
12.8443 -0.000610107 3.13076e-06 -3.97106e-06 -12.8443 0 0 2388.51 
6.74472 -1.68618e-05 0 0 -6.74472 0 0 0 
7.47357 -0.000354995 -1.29082e-06 3.30032e-06 -7.47357 0 0 1397.62 
5.61793 -1.40449e-05 0 0 -5.61793 0 0 4.95405e-12 
8.49489 -0.000414126 4.31184e-06 2.72546e-06 -8.49489 0 0 1442.26 
9.01945 -0.000439698 5.62239e-06 -1.98815e-06 -9.01945 0 0 2465.5 
10.1544 -0.00500539 -2.24384e-06 3.08542e-06 -10.1544 0 0 2341.24 
10.7989 -0.000928704 2.39345e-06 3.93675e-06 -10.7989 0 0 2170.3 
9.11346 -0.000783758 -1.96376e-06 1.3891e-06 -9.11346 0 0 1316.56 
9.96654 -0.000130982 1.21268e-06 1.37292e-07 -9.96654 0 0 3195.28 
8.09262 -0.000394515 1.09319e-06 -1.15624e-06 -8.09262 0 0 1698.88 
0 0 0 0 0 0 0 0 
8.90818 -0.000423138 -3.30782e-06 -4.1326e-07 -8.90818 0 0 2805.99 
10.7834 -2.69586e-05 -7.14691e-07 1.04382e-07 -10.7834 0 0 5667.99 
7.45463 -0.000354095 6.07484e-07 3.02597e-06 -7.45463 0 0 3017.19 
0 0 0 0 0 0 0 0 
8.05548 -0.000382635 -4.90775e-07 -1.90098e-06 -8.05548 0 0 1221.57 
7.37704 -1.84426e-05 0 0 -7.37704 0 0 0 
11.7237 -0.000556875 -1.35417e-06 5.06235e-07 -11.7237 0 0 840.618 
9.28818 -2.32205e-05 -1.46338e-06 1.52312e-06 -9.28818 0 0 4718.59 
11.3219 -0.000537789 -3.95719e-06 1.13801e-06 -11.3219 0 0 2733.37 
3.70519 -9.26295e-06 0 0 -3.70519 0 0 0 
9.58408 -0.000455244 -9.30397e-07 -6.67463e-07 -9.58408 0 0 1981.59 
0 0 0 0 0 0 0 0 
5.90811 -0.00028802 -4.23239e-06 2.02187e-06 -5.90811 0 0 920.19 
8.91763 -0.00439576 2.85158e-06 1.0804e-05 -8.91763 0 0 1782.31 
6.71938 -1.67985e-05 0 0 -6.71938 0 0 0 
10.6084 -0.000503897 -6.9107e-07 -5.25017e-07 -10.6084 0 0 1637.92 
6.41041 -1.60261e-05 0 0 -6.41041 0 0 0 
8.85944 -0.000420823 -3.93611e-06 -8.29841e-07 -8.85944 0 0 1306.39 
25.3938 -6.34846e-05 4.03294e-07 1.48372e-07 -25.3938 0 0 5258.7 
10.2069 -0.000484827 4.16346e-06 -8.80916e-07 -10.2069 0 0 2056.22 
6.37604 -1.59401e-05 0 0 -6.37604 0 0 0 
10.364 -0.000492289 -1.85648e-06 -3.44304e-06 -10.364 0 0 2412.2 
17.3749 -4.34373e-05 0 0 -17.3749 0 0 0 
6.62531 -0.000314702 2.06535e-06 1.87876e-06 -6.62531 0 0 1625.94 
3.63936 -9.0984e-06 -9.95831e-07 -5.12167e-07 -3.63936 0 0 6638.76 
8.36258 -0.000397223 1.09271e-06 8.44428e-07 -8.36258 0 0 1473.45 
11.4547 -2.8637e-05 0 0 -11.4547 0 0 9.90811e-12 
7.77796 -0.000379176 3.35083e-06 -1.49477e-06 -7.77796 0 0 1921 
0.202772 -3.0105e-05 0.000118622 -3.09152e-06 0 0.202772 0 88.5252 
0.42742 -7.9907e-06 0.00012502 -3.76131e-07 0 0.42742 0 63.5384 
0.435646 -1.55969e-05 0.000127426 5.67505e-07 0 0.435646 0 83.8579 
0 0 0 0 0 0 0 0 
0 0 0 0 0 0 0 0 
1.60806 3.81914e-06 0 0 1.60806 0 0 0 
0 0 0 0 0 0 0 0 
0 0 0 0 0 0 0 0 
0 0 0 0 0 0 0 0 
0 0 0 0 0 0 0 0 
0 0 0 0 0 0 0 0 
0 0 0 0 0 0 0 0 
0 0 0 0 0 0 0 0 
0 0 0 0 0 0 0 0 
0 0 0 0 0 0 0 0 
0 0 0 0 0 0 0 0 
1.06317 2.52503e-06 0 0 1.06317 0 0 0 
0 0 0 0 0 0 0 0 
0 0 0 0 0 0 0 0 
0 0 0 0 0 0 0 0 
0 0 0 0 0 0 0 0 
0 0 0 0 0 0 0 0 
0 0 0 0 0 0 0 0 
0 0 0 0 0 0 0 0 
0.68508 1.62707e-06 0 0 0.68508 0 0 0 
0 0 0 0 0 0 0 0 
0 0 0 0 0 0 0 0 
0 0 0 0 0 0 0 0 
3.58111 8.50515e-06 -2.67439e-07 -6.07216e-07 3.58111 0 0 5126.48 
0 0 0 0 0 0 0 0 
0 0 0 0 0 0 0 0 
0 0 0 0 0 0 0 0 
0 0 0 0 0 0 0 0 
0 0 0 0 0 0 0 0 
1.07337 2.54925e-06 0 0 1.07337 0 0 0 
0 0 0 0 0 0 0 0 
0 0 0 0 0 0 0 0 
0 0 0 0 0 0 0 0 
2.86825 7.34989e-06 0 0 2.86825 0 0 0 
0 0 0 0 0 0 0 0 
0 0 0 0 0 0 0 0 
0 0 0 0 0 0 0 0 
2.31523 5.49865e-06 0 0 2.31523 0 0 0 
0 0 0 0 0 0 0 0 
0 0 0 0 0 0 0 0 
0 0 0 0 0 0 0 0 
0 0 0 0 0 0 0 0 
0 0 0 0 0 0 0 0 
0 0 0 0 0 0 0 0 
0 0 0 0 0 0 0 0 
0 0 0 0 0 0 0 0 
0 0 0 0 0 0 0 0 
0 0 0 0 0 0 0 0 
5.34381 1.26916e-05 0 0 5.34381 0 0 0 
0 0 0 0 0 0 0 0 
0 0 0 0 0 0 0 0 
0 0 0 0 0 0 0 0 
0 0 0 0 0 0 0 0 
0 0 0 0 0 0 0 0 
0 0 0 0 0 0 0 0 
2.83124 6.7242e-06 0 0 2.83124 0 0 0 
0 0 0 0 0 0 0 0 
0 0 0 0 0 0 0 0 
0 0 0 0 0 0 0 0 
0 0 0 0 0 0 0 0 
0 0 0 0 0 0 0 0 
0 0 0 0 0 0 0 0 
0 0 0 0 0 0 0 0 
1.0074 2.39258e-06 0 0 1.0074 0 0 0 
0 0 0 0 0 0 0 0 
0 0 0 0 0 0 0 0 
0 0 0 0 0 0 0 0 
0 0 0 0 0 0 0 0 
0 0 0 0 0 0 0 0 
0 0 0 0 0 0 0 0 
0.748848 1.77851e-06 0 0 0.748848 0 0 0 
0.757344 1.79869e-06 0 0 0.757344 0 0 0 
0 0 0 0 0 0 0 0 
0 0 0 0 0 0 0 0 
0 0 0 0 0 0 0 0 
0 0 0 0 0 0 0 0 
0 0 0 0 0 0 0 0 
0 0 0 0 0 0 0 0 
2.83834 6.74106e-06 3.27374e-08 -1.73492e-06 2.83834 0 0 900.019 
0 0 0 0 0 0 0 0 
19.8999 2.48749e-06 0 0 19.8999 0 0 0 
0 0 0 0 0 0 0 0 
0 0 0 0 0 0 0 0 
4.17867 9.92437e-06 0 0 4.17867 0 0 0 
0 0 0 0 0 0 0 0 
0 0 0 0 0 0 0 0 
0 0 0 0 0 0 0 0 
0 0 0 0 0 0 0 0 
0 0 0 0 0 0 0 0 
1.21686 2.89006e-06 0 0 1.21686 0 0 0 
0 0 0 0 0 0 0 0 
0 0 0 0 0 0 0 0 
0 0 0 0 0 0 0 0 
3.59229 8.5317e-06 0 0 3.59229 0 0 0 
0 0 0 0 0 0 0 0 
0 0 0 0 0 0 0 0 
0 0 0 0 0 0 0 0 
0 0 0 0 0 0 0 0 
0 0 0 0 0 0 0 0 
1.34283 3.18921e-06 0 0 1.34283 0 0 0 
0 0 0 0 0 0 0 0 
0 0 0 0 0 0 0 0 
1.28667 3.05584e-06 -2.08348e-06 2.15501e-06 1.28667 0 0 2273.58 
0 0 0 0 0 0 0 0 
0 0 0 0 0 0 0 0 
0 0 0 0 0 0 0 0 
0.879208 2.08812e-06 -1.6807e-06 7.13829e-07 0.879208 0 0 622.461 
0 0 0 0 0 0 0 0 
0 0 0 0 0 0 0 0 
0 0 0 0 0 0 0 0 
0 0 0 0 0 0 0 0 
0 0 0 0 0 0 0 0 
0 0 0 0 0 0 0 0 
0 0 0 0 0 0 0 0 
0 0 0 0 0 0 0 0 
0 0 0 0 0 0 0 0 
2.53297 6.01581e-06 0 0 2.53297 0 0 0 
0 0 0 0 0 0 0 0 
0 0 0 0 0 0 0 0 
0 0 0 0 0 0 0 0 
0 0 0 0 0 0 0 0 
0 0 0 0 0 0 0 0 
0 0 0 0 0 0 0 0 
0 0 0 0 0 0 0 0 
0 0 0 0 0 0 0 0 
0 0 0 0 0 0 0 0 
0 0 0 0 0 0 0 0 
0 0 0 0 0 0 0 0 
0 0 0 0 0 0 0 0 
0 0 0 0 0 0 0 0 
0 0 0 0 0 0 0 0 
0 0 0 0 0 0 0 0 
7.67864 1.82368e-05 0 0 7.67864 0 0 0 
0 0 0 0 0 0 0 0 
0 0 0 0 0 0 0 0 
0 0 0 0 0 0 0 0 
0 0 0 0 0 0 0 0 
6.62049 1.57236e-05 0 0 6.62049 0 0 0 
0 0 0 0 0 0 0 0 
0 0 0 0 0 0 0 0 
0 0 0 0 0 0 0 0 
0 0 0 0 0 0 0 0 
0 0 0 0 0 0 0 0 
0 0 0 0 0 0 0 0 
0 0 0 0 0 0 0 0 
0 0 0 0 0 0 0 0 
0 0 0 0 0 0 0 0 
0 0 0 0 0 0 0 0 
0 0 0 0 0 0 0 0 
0 0 0 0 0 0 0 0 
0 0 0 0 0 0 0 0 
0 0 0 0 0 0 0 0 
0 0 0 0 0 0 0 0 
0 0 0 0 0 0 0 0 
0 0 0 0 0 0 0 0 
1.86277 4.42408e-06 0 0 1.86277 0 0 0 
0 0 0 0 0 0 0 0 
0 0 0 0 0 0 0 0 
0 0 0 0 0 0 0 0 
0 0 0 0 0 0 0 0 
0 0 0 0 0 0 0 0 
0 0 0 0 0 0 0 0 
0 0 0 0 0 0 0 0 
1.67494 3.97798e-06 0 0 1.67494 0 0 0 
0 0 0 0 0 0 0 0 
0 0 0 0 0 0 0 0 
0 0 0 0 0 0 0 0 
0 0 0 0 0 0 0 0 
0 0 0 0 0 0 0 0 
0 0 0 0 0 0 0 0 
0 0 0 0 0 0 0 0 
0 0 0 0 0 0 0 0 
0 0 0 0 0 0 0 0 
0 0 0 0 0 0 0 0 
0 0 0 0 0 0 0 0 
0 0 0 0 0 0 0 0 
0 0 0 0 0 0 0 0 
0 0 0 0 0 0 0 0 
0 0 0 0 0 0 0 0 
1.0708 2.54315e-06 0 0 1.0708 0 0 0 
0 0 0 0 0 0 0 0 
0 0 0 0 0 0 0 0 
0 0 0 0 0 0 0 0 
0 0 0 0 0 0 0 0 
0 0 0 0 0 0 0 0 
0 0 0 0 0 0 0 0 
0 0 0 0 0 0 0 0 
0 0 0 0 0 0 0 0 
0 0 0 0 0 0 0 0 
0 0 0 0 0 0 0 0 
0 0 0 0 0 0 0 0 
0 0 0 0 0 0 0 0 
2.78725 6.79393e-06 0 0 2.78725 0 0 0 
0 0 0 0 0 0 0 0 
0 0 0 0 0 0 0 0 
0 0 0 0 0 0 0 0 
0 0 0 0 0 0 0 0 
0.803695 1.90879e-06 0 0 0.803695 0 0 0 
0 0 0 0 0 0 0 0 
0 0 0 0 0 0 0 0 
0 0 0 0 0 0 0 0 
0 0 0 0 0 0 0 0 
0 0 0 0 0 0 0 0 
0 0 0 0 0 0 0 0 
0 0 0 0 0 0 0 0 
0 0 0 0 0 0 0 0 
0 0 0 0 0 0 0 0 
0 0 0 0 0 0 0 0 
0 0 0 0 0 0 0 0 
0 0 0 0 0 0 0 0 
0 0 0 0 0 0 0 0 
0 0 0 0 0 0 0 0 
0 0 0 0 0 0 0 0 
0 0 0 0 0 0 0 0 
0 0 0 0 0 0 0 0 
0 0 0 0 0 0 0 0 
0 0 0 0 0 0 0 0 
0 0 0 0 0 0 0 0 
0 0 0 0 0 0 0 0 
0 0 0 0 0 0 0 0 
0.762997 1.81212e-06 1.67966e-06 -2.63799e-07 0.762997 0 0 2367.84 
0 0 0 0 0 0 0 0 
0 0 0 0 0 0 0 0 
0 0 0 0 0 0 0 0 
0 0 0 0 0 0 0 0 
3.37798 8.23383e-06 0 0 3.37798 0 0 0 
1.1708 2.85383e-06 0 0 1.1708 0 0 0 
0 0 0 0 0 0 0 0 
3.21121 7.62666e-06 0 0 3.21121 0 0 0 
2.68188 6.36951e-06 0 0 2.68188 0 0 0 
0.585218 1.42647e-06 0 0 0.585218 0 0 0 
0 0 0 0 0 0 0 0 
0 0 0 0 0 0 0 0 
2.1432 5.09013e-06 0 0 2.1432 0 0 0 
0 0 0 0 0 0 0 0 
0 0 0 0 0 0 0 0 
0 0 0 0 0 0 0 0 
0 0 0 0 0 0 0 0 
0.303957 7.40898e-07 0 0 0.303957 0 0 0 
0 0 0 0 0 0 0 0 
0 0 0 0 0 0 0 0 
0 0 0 0 0 0 0 0 
0 0 0 0 0 0 0 0 
0 0 0 0 0 0 0 0 
0 0 0 0 0 0 0 0 
7.13021 1.69343e-05 0 0 7.13021 0 0 0 
0 0 0 0 0 0 0 0 
0 0 0 0 0 0 0 0 
0 0 0 0 0 0 0 0 
0 0 0 0 0 0 0 0 
0 0 0 0 0 0 0 0 
0 0 0 0 0 0 0 0 
0 0 0 0 0 0 0 0 
0 0 0 0 0 0 0 0 
0 0 0 0 0 0 0 0 
0 0 0 0 0 0 0 0 
1.24744 3.04065e-06 0 0 1.24744 0 0 0 
0 0 0 0 0 0 0 0 
0 0 0 0 0 0 0 0 
0 0 0 0 0 0 0 0 
0 0 0 0 0 0 0 0 
0 0 0 0 0 0 0 0 
0 0 0 0 0 0 0 0 
0 0 0 0 0 0 0 0 
14.1311 1.76639e-06 -2.00579e-07 2.4382e-06 14.1311 0 0 22868.1 
0 0 0 0 0 0 0 0 
0 0 0 0 0 0 0 0 
0 0 0 0 0 0 0 0 
0 0 0 0 0 0 0 0 
0 0 0 0 0 0 0 0 
0 0 0 0 0 0 0 0 
0 0 0 0 0 0 0 0 
0 0 0 0 0 0 0 0 
0 0 0 0 0 0 0 0 
0.368212 8.97514e-07 0 0 0.368212 0 0 0 
0 0 0 0 0 0 0 0 
0 0 0 0 0 0 0 0 
0 0 0 0 0 0 0 0 
0 0 0 0 0 0 0 0 
0 0 0 0 0 0 0 0 
0.34334 8.36896e-07 0 0 0.34334 0 0 0 
0 0 0 0 0 0 0 0 
0 0 0 0 0 0 0 0 
0 0 0 0 0 0 0 0 
0 0 0 0 0 0 0 0 
0 0 0 0 0 0 0 0 
0 0 0 0 0 0 0 0 
0 0 0 0 0 0 0 0 
1.28709 3.13728e-06 0 0 1.28709 0 0 0 
0 0 0 0 0 0 0 0 
1.86593 4.4316e-06 2.91799e-06 7.84581e-07 1.86593 0 0 2108.79 
0 0 0 0 0 0 0 0 
0.206371 5.03029e-07 0 0 0.206371 0 0 0 
0 0 0 0 0 0 0 0 
0 0 0 0 0 0 0 0 
0 0 0 0 0 0 0 0 
0 0 0 0 0 0 0 0 
0 0 0 0 0 0 0 0 
0 0 0 0 0 0 0 0 
0 0 0 0 0 0 0 0 
0 0 0 0 0 0 0 0 
0 0 0 0 0 0 0 0 
0 0 0 0 0 0 0 0 
1.16457 2.76585e-06 0 0 1.16457 0 0 0 
0 0 0 0 0 0 0 0 
0 0 0 0 0 0 0 0 
0 0 0 0 0 0 0 0 
0 0 0 0 0 0 0 0 
0 0 0 0 0 0 0 0 
0 0 0 0 0 0 0 0 
0 0 0 0 0 0 0 0 
0 0 0 0 0 0 0 0 
0 0 0 0 0 0 0 0 
0 0 0 0 0 0 0 0 
0 0 0 0 0 0 0 0 
0 0 0 0 0 0 0 0 
0 0 0 0 0 0 0 0 
8.01159 1.95282e-05 0 0 8.01159 0 0 0 
0 0 0 0 0 0 0 0 
0 0 0 0 0 0 0 0 
0 0 0 0 0 0 0 0 
1.82372 4.44532e-06 0 0 1.82372 0 0 0 
0 0 0 0 0 0 0 0 
0 0 0 0 0 0 0 0 
0.252114 -1.97049e-05 -0.000147487 7.76778e-06 0 -0.252114 0 85.5479 
0.400319 -1.60344e-05 -0.000234187 -4.32488e-06 0 -0.400319 0 60.9038 
2.33276 -0.000304164 0.000272732 -0.000278878 -1.16638 1.42852 -1.42852 703.209 
2.39743 -0.000349335 0.000270649 -0.000266266 -1.19872 1.46811 -1.46813 1063.24 
0.0537472 -0.000448447 0.00047031 0.000510219 0 0.038005 0.038005 63.1503 
0.0561272 -0.000952785 0.0011299 0.00114422 1.33144e-09 0.0396879 0.0396879 61.0937 
0.0443505 -0.000211513 0.000185682 0.000203319 0 0.0313605 0.0313605 68.5703 
0.0633279 -0.000393015 0.000936485 -2.20155e-06 0 0.0633279 0 49.0677 
0.0486683 -0.000394115 0.000719701 -5.00547e-06 0 0.0486683 0 49.9065 
0.0551112 -0.00033955 -8.15015e-06 0.000814978 0 0 0.0551112 42.2513 
0.051792 -0.000507145 -2.82853e-06 0.000765894 0 0 0.051792 63.8644 
0.0598159 -0.000969287 0.00118465 0.00123892 0 0.0422962 0.0422962 60.6458 
0.0529779 -0.000287683 0.000490604 0.000475891 -7.734e-10 0.037461 0.0374611 42.3207 
0.041893 -0.000161621 0.000187697 0.000179749 0 0.0296228 0.0296228 48.3933 
2.19418 -0.00030098 -0.000255719 0.000250969 -1.09709 -1.34365 1.34365 816.359 
2.63445 -0.000358157 -0.000304095 0.000306897 -1.31723 -1.61326 1.61327 997.891 
0.0514267 -0.00084595 -0.00103037 -0.0010533 0 -0.0363642 -0.0363642 52.3868 
0.0511447 -0.000413566 -0.000451316 -0.000481735 2.69453e-09 -0.0361647 -0.0361647 60.8182 
0.0476388 -0.000148249 -0.000205473 -0.00021237 0 -0.0336858 -0.0336857 41.0319 
0.0677384 -0.000385081 -0.00100171 3.8988e-06 0 -0.0677384 0 48.0315 
0.0520341 -0.000491983 -0.000769473 5.36256e-07 0 -0.0520341 0 60.8074 
0.0655535 -0.00048371 2.17768e-06 -0.000969396 0 0 -0.0655535 60.7001 
0.0530831 -0.000446491 9.07576e-06 -0.000784986 0 0 -0.0530831 55.9066 
0.0659342 -0.000359952 -0.000610145 -0.000592717 0 -0.0466225 -0.0466226 50.9811 
0.0538241 -0.000795941 -0.00109916 -0.00108164 -3.53794e-10 -0.0380594 -0.0380594 50.6046 
0.0555333 -0.00020822 -0.000240259 -0.000246827 0 -0.039268 -0.039268 61.1084 
0.371401 -3.09023e-05 1.66981e-06 -0.00021727 0 0 -0.371401 115.615 
0.558153 -2.59886e-05 -5.04814e-06 -0.000326519 0 0 -0.558153 91.0732 
0.321596 -2.58318e-05 -0.00018331 1.68155e-06 0 -0.321596 0 109.802 
0.510203 -5.61198e-05 -0.000290816 3.48101e-06 0 -0.510203 0 172.179 
0.426349 -4.20297e-05 -4.13177e-06 0.000249414 0 0 0.426349 140.88 
0.501699 -3.15837e-05 -5.43656e-07 0.000293494 0 0 0.501699 130.635 
0.491389 -2.66593e-05 0.000280092 4.58897e-06 0 0.491389 0 130.885 
0.300655 -2.34277e-05 0.000171373 -4.46363e-06 0 0.300655 0 75.6363 
0.220797 -1.43796e-05 0.000125854 4.18139e-06 0 0.220797 0 75.3404 
0.231631 -3.95299e-05 0.00013203 6.15896e-06 0 0.231631 0 122.528 
0.230298 -6.95756e-06 -3.97803e-06 -0.00013127 0 0 -0.230298 44.5036 
0.156201 -1.9727e-05 5.53607e-06 -8.90344e-05 0 0 -0.156201 63.0409 
0.186675 -2.20997e-05 -0.000106405 8.54131e-06 0 -0.186675 0 67.3492 
0.235335 -2.49221e-05 -0.000134141 -2.23208e-06 0 -0.235335 0 136.061 
0.214076 -2.82138e-06 -4.14786e-06 0.000122023 0 -4.19725e-08 0.214076 15.808 
0.132084 -4.10182e-05 5.12786e-06 7.5288e-05 0 -2.58968e-08 0.132084 143.991 
0.293577 -1.83345e-05 0.000167339 4.16648e-07 0 0.293577 0 45.597 
0.264793 -1.83291e-05 0.000150932 5.80493e-06 0 0.264793 0 104.444 
0.325852 -6.13074e-05 1.73317e-06 -0.000185735 0 0 -0.325852 197.259 
0.303477 -1.0419e-05 -1.60354e-06 -0.000172982 0 0 -0.303477 42.6819 
0.273599 -1.33782e-05 -0.000155951 4.80818e-06 0 -0.273599 0 146.786 
0.328477 -5.15201e-05 -0.000187232 -6.72893e-06 0 -0.328477 0 172.478 
0.363569 -8.3693e-06 -7.54494e-07 0.000207234 0 0 0.363569 27.7516 
0.300063 -1.85761e-05 -5.68592e-06 0.000171036 0 0 0.300063 77.0351 
0.344859 -2.78182e-05 -0.000196569 -6.0885e-07 0 -0.344859 0 109.574 
0.492293 -4.11464e-05 -0.000280607 -2.92663e-06 0 -0.492293 0 182.798 
0.407155 -3.5483e-05 -1.7999e-06 0.000232079 0 0 0.407155 113.961 
0.523986 -2.96883e-05 8.50582e-07 0.000298672 0 0 0.523986 119.677 
0.381606 -5.29992e-06 0.000217515 -7.94909e-07 0 0.381606 0 19.9567 
0.431022 -3.67496e-05 0.000245683 -5.85697e-06 0 0.431022 0 157.96 
0.306364 -2.498e-05 6.64357e-06 -0.000174627 0 0 -0.306364 92.2107 
0.628369 -5.79262e-05 -8.21725e-07 -0.00035817 0 0 -0.628369 172.033 
0.456545 -6.37769e-05 0.00026023 -1.12094e-05 0 0.456545 0 199.286 
0.536434 -2.04291e-05 0.000305767 -6.38081e-07 0 0.536434 0 49.945 
0.374215 -3.62661e-05 1.68865e-05 -0.000213303 0 0 -0.374215 126.021 
0.415762 -1.58371e-05 5.9584e-06 -0.000236984 0 0 -0.415762 68.2726 
0.457886 -1.26028e-05 -0.000260995 -2.27703e-06 0 -0.457886 0 62.0097 
0.596153 -5.22313e-05 -0.000339807 1.22667e-06 0 -0.596153 0 141.081 
0.419828 -5.49036e-05 1.74752e-05 0.000239302 0 0 0.419828 170.059 
0.436233 -2.80958e-05 -9.63995e-06 0.000248653 0 0 0.436233 100.213 
0.395838 -2.80776e-05 0.000225628 2.98563e-06 0 0.395838 0 91.7844 
0.417635 -3.93092e-05 0.000238052 1.94035e-05 0 0.417635 0 138.916 
0.37974 -5.16995e-05 7.47542e-06 -0.000216452 0 0 -0.37974 183.157 
0.513275 -2.33095e-05 1.76912e-06 -0.000292567 0 0 -0.513275 81.9682 
0.406582 -2.67119e-05 -0.000231752 -1.17223e-05 0 -0.406582 0 126.043 
0.410377 -2.39104e-05 -0.000233915 3.87849e-06 0 -0.410377 0 101.959 
0.37817 -1.91832e-05 -7.71755e-06 0.000215557 0 0 0.37817 73.038 
0.51177 -2.48492e-05 5.27921e-06 0.000291709 0 0 0.51177 82.0582 
0.334058 -2.40212e-05 1.44108e-05 -0.000190413 0 0 -0.334058 111.971 
0.310542 -1.31365e-05 -2.6858e-06 -0.000177009 0 0 -0.310542 35.7912 
0.301619 -4.40045e-05 -0.000171923 4.03845e-06 0 -0.301619 0 119.015 
0.328624 -2.48009e-05 -0.000187316 2.17719e-06 0 -0.328624 0 53.8127 
0.341772 -3.84e-05 4.66552e-06 0.00019481 0 0 0.341772 132.205 
0.293652 -8.39349e-06 1.58289e-06 0.000167382 0 0 0.293652 37.0959 
0.327157 -1.33126e-05 0.000186479 6.66199e-06 0 0.327157 0 48.0583 
0.292798 -2.17799e-05 0.000166895 -3.08358e-06 0 0.292798 0 88.1826 
0.288631 -3.12185e-05 0.00016452 -6.04042e-06 0 0.288631 0 82.6215 
0.315614 -5.385e-05 0.0001799 7.6562e-06 0 0.315614 0 158.729 
0.29507 -6.18375e-06 5.27072e-07 -0.00016819 0 0 -0.29507 32.5431 