ITEM: TIMESTEP
185
ITEM: NUMBER OF SURFS
6916
ITEM: BOX BOUNDS oo rr rr
-0.35 0.35
-0.25 0.25
-0.25 0.25
ITEM: SURFS f_save[1] f_save[2] f_save[3] f_save[4] f_save[5] f_save[6] f_save[7] f_save[8] 
9.20618 -6.90751e-05 0 0 -9.20618 0 0 0 
4.44358 -3.33407e-05 0 0 -4.44358 0 0 0 
0 0 0 0 0 0 0 0 
0.99059 -1.68917e-05 0.000297301 3.81367e-06 0 0.99059 0 127.145 
0.81091 -4.71861e-05 0.000243357 -1.16928e-05 0 0.81091 0 363.687 
0.847838 -2.90047e-05 -0.000254458 5.039e-06 0 -0.847838 0 202.121 
1.11335 -3.44203e-05 -0.000334121 -4.56331e-06 0 -1.11335 0 226.938 
0 0 0 0 0 0 0 0 
0 0 0 0 0 0 0 0 
0 0 0 0 0 0 0 0 
0.2868 -4.69158e-05 -3.58218e-07 0.000167778 0 0 0.2868 161.038 
0.353729 -1.93913e-05 -4.19639e-06 0.000206932 0 0 0.353729 77.8468 
0 0 0 0 0 0 0 0 
7.58198 -1.84811e-05 0 0 -7.58198 0 0 0 
0 0 0 0 0 0 0 0 
75.5857 -9.44826e-06 -1.64583e-06 2.8295e-07 -75.5857 0 0 102384 
0 0 0 0 0 0 0 0 
0 0 0 0 0 0 0 0 
8.07905 -1.96927e-05 0 0 -8.07905 0 0 0 
23.2666 -5.67124e-05 -1.18818e-07 -6.71945e-07 -23.2666 0 0 5763.26 
0 0 0 0 0 0 0 0 
0 0 0 0 0 0 0 0 
7.09227 -1.68442e-05 0 0 -7.09227 0 0 0 
5.045 -1.19819e-05 0 0 -5.045 0 0 0 
0 0 0 0 0 0 0 0 
0 0 0 0 0 0 0 0 
0 0 0 0 0 0 0 0 
0 0 0 0 0 0 0 0 
24.1437 -5.88504e-05 0 0 -24.1437 0 0 0 
18.9667 -4.62314e-05 0 0 -18.9667 0 0 0 
0 0 0 0 0 0 0 0 
130.878 -1.63598e-05 0 0 -130.878 0 0 0 
9.03561 -2.14596e-05 1.18992e-06 -3.89788e-07 -9.03561 0 0 7188.28 
21.3803 -5.07784e-05 1.51023e-08 -1.28796e-06 -21.3803 0 0 5166.6 
22.5921 -5.36562e-05 -1.20881e-06 -1.75164e-06 -22.5921 0 0 11069 
0 0 0 0 0 0 0 0 
8.9369 -2.12252e-05 7.6648e-07 7.03626e-07 -8.9369 0 0 6046.19 
0 0 0 0 0 0 0 0 
6.9469 -1.64989e-05 0 0 -6.9469 0 0 0 
22.314 -5.29957e-05 0 0 -22.314 0 0 0 
12.8326 -3.04777e-05 0 0 -12.8326 0 0 0 
26.5087 -6.29582e-05 0 0 -26.5087 0 0 0 
19.8617 -4.71715e-05 -9.80259e-07 -1.56445e-06 -19.8617 0 0 6745.93 
30.0408 -7.13471e-05 3.48837e-06 1.25703e-06 -30.0408 0 0 3274.99 
4.02131 -9.55062e-06 -1.05016e-06 1.31205e-06 -4.02131 0 0 6353.31 
0 0 0 0 0 0 0 0 
15.7557 -3.84045e-05 -5.75768e-07 1.27561e-07 -15.7557 0 0 5898.74 
2.4227 -5.90532e-06 -7.58065e-07 -3.50187e-07 -2.4227 0 0 4342.34 
14.644 -3.56949e-05 0 0 -14.644 0 0 0 
9.29545 -2.26577e-05 0 0 -9.29545 0 0 0 
15.07 -3.67331e-05 0 0 -15.07 0 0 0 
8.61338 -2.09952e-05 1.17544e-07 -1.81997e-07 -8.61338 0 0 7466.63 
14.485 -3.44017e-05 0 0 -14.485 0 0 0 
0 0 0 0 0 0 0 0 
14.1556 -3.36197e-05 0 0 -14.1556 0 0 0 
0 0 0 0 0 0 0 0 
12.4993 -2.96859e-05 0 0 -12.4993 0 0 0 
0 0 0 0 0 0 0 0 
7.93374 -1.88426e-05 0 0 -7.93374 0 0 0 
23.6445 -5.61557e-05 0 0 -23.6445 0 0 0 
6.76774 -1.64964e-05 0 0 -6.76774 0 0 0 
6.50215 -1.5849e-05 0 0 -6.50215 0 0 0 
13.3996 -3.26616e-05 0 0 -13.3996 0 0 0 
15.114 -3.68405e-05 0 0 -15.114 0 0 0 
0 0 0 0 0 0 0 0 
8.06883 -1.96678e-05 0 0 -8.06883 0 0 0 
6.69855 -1.63278e-05 0 0 -6.69855 0 0 0 
3.01245 -7.34289e-06 6.23711e-07 5.78118e-07 -3.01245 0 0 4133.13 
15.353 -3.64635e-05 0 0 -15.353 0 0 0 
7.35074 -1.7458e-05 -1.39299e-06 -2.98474e-06 -7.35074 0 0 11047.4 
13.8977 -3.38759e-05 2.64049e-07 9.65187e-07 -13.8977 0 0 7090.51 
4.81484 -1.17362e-05 0 0 -4.81484 0 0 0 
0 0 0 0 0 0 0 0 
7.67342 -1.82244e-05 0 0 -7.67342 0 0 0 
14.4413 -3.52005e-05 0 0 -14.4413 0 0 0 
7.34947 -1.79143e-05 -1.95739e-06 5.2633e-07 -7.34947 0 0 11103.8 
16.0345 -3.90841e-05 8.17817e-07 1.24013e-06 -16.0345 0 0 12703.8 
6.73367 -1.64133e-05 0 0 -6.73367 0 0 0 
10.5775 -2.51215e-05 0 0 -10.5775 0 0 0 
21.8946 -5.19996e-05 0 0 -21.8946 0 0 0 
0 0 0 0 0 0 0 0 
12.3133 -2.92443e-05 0 0 -12.3133 0 0 0 
14.8938 -3.53728e-05 0 0 -14.8938 0 0 0 
9.43234 -2.24018e-05 -6.94613e-07 8.54592e-08 -9.43234 0 0 6505.35 
6.90551 -1.64006e-05 0 0 -6.90551 0 0 0 
7.34551 -1.74456e-05 0 0 -7.34551 0 0 0 
13.9896 -3.32253e-05 0 0 -13.9896 0 0 0 
7.56151 -1.79585e-05 0 0 -7.56151 0 0 0 
0 0 0 0 0 0 0 0 
13.7426 -3.34977e-05 0 0 -13.7426 0 0 0 
2.74454 -6.68986e-06 0 0 -2.74454 0 0 0 
27.435 -6.68733e-05 0 0 -27.435 0 0 0 
0 0 0 0 0 0 0 0 
1.85247 -4.39962e-06 0 0 -1.85247 0 0 0 
20.8585 -5.08428e-05 0 0 -20.8585 0 0 0 
20.806 -5.07147e-05 1.56959e-06 9.23246e-07 -20.806 0 0 11577.4 
16.0854 -3.82028e-05 -8.1601e-08 -9.45559e-07 -16.0854 0 0 5737.73 
9.78618 -2.32422e-05 8.8747e-07 -4.05479e-07 -9.78618 0 0 3220.71 
0 0 0 0 0 0 0 0 
0 0 0 0 0 0 0 0 
15.0716 -3.57952e-05 0 0 -15.0716 0 0 0 
21.8064 -5.17902e-05 3.80957e-06 3.26477e-07 -21.8064 0 0 11734.8 
3.76746 -8.94774e-06 6.30385e-07 6.52275e-07 -3.76746 0 0 5810.37 
14.7761 -3.50934e-05 0 0 -14.7761 0 0 0 
0 0 0 0 0 0 0 0 
0 0 0 0 0 0 0 0 
13.3815 -3.17809e-05 2.71272e-06 2.15659e-07 -13.3815 0 0 10651 
0 0 0 0 0 0 0 0 
12.4298 -2.95207e-05 0 0 -12.4298 0 0 0 
4.49401 -1.06733e-05 -7.17841e-07 -1.15532e-06 -4.49401 0 0 7280.3 
0 0 0 0 0 0 0 0 
0 0 0 0 0 0 0 0 
23.0067 -5.46407e-05 0 0 -23.0067 0 0 0 
7.75526 -1.84188e-05 0 0 -7.75526 0 0 0 
0 0 0 0 0 0 0 0 
1.65859 -3.93914e-06 6.46352e-06 -8.10773e-07 -1.65859 0 0 3262.19 
0 0 0 0 0 0 0 0 
0 0 0 0 0 0 0 0 
16.1544 -3.83666e-05 9.44348e-07 4.12357e-06 -16.1544 0 0 3456.02 
7.05661 -1.67594e-05 0 0 -7.05661 0 0 0 
13.7083 -3.25572e-05 0 0 -13.7083 0 0 0 
8.09905 -1.92353e-05 -5.59176e-06 -2.04001e-06 -8.09905 0 0 4256.05 
0 0 0 0 0 0 0 0 
0 0 0 0 0 0 0 0 
3.84312 -9.12743e-06 -4.24072e-07 -1.26716e-06 -3.84312 0 0 6154.12 
5.28349 -1.25483e-05 0 0 -5.28349 0 0 0 
15.8913 -3.8735e-05 0 0 -15.8913 0 0 0 
7.35994 -1.79399e-05 0 0 -7.35994 0 0 0 
0 0 0 0 0 0 0 0 
0 0 0 0 0 0 0 0 
6.41426 -1.52339e-05 0 0 -6.41426 0 0 0 
7.15234 -1.69868e-05 0 0 -7.15234 0 0 0 
12.4304 -3.02991e-05 0 0 -12.4304 0 0 0 
19.3911 -4.7266e-05 0 0 -19.3911 0 0 0 
0 0 0 0 0 0 0 0 
0 0 0 0 0 0 0 0 
6.67696 -1.58578e-05 0 0 -6.67696 0 0 0 
7.77349 -1.84621e-05 0 0 -7.77349 0 0 0 
0 0 0 0 0 0 0 0 
28.3502 -6.91034e-05 0 0 -28.3502 0 0 0 
0 0 0 0 0 0 0 0 
0 0 0 0 0 0 0 0 
11.6619 -2.76971e-05 3.9249e-08 1.94365e-07 -11.6619 0 0 6255.56 
7.68976 -1.82632e-05 0 0 -7.68976 0 0 0 
0 0 0 0 0 0 0 0 
10.5793 -2.57872e-05 -1.11888e-07 -1.78235e-06 -10.5793 0 0 6494.91 
0 0 0 0 0 0 0 0 
0 0 0 0 0 0 0 0 
15.9761 -3.79434e-05 0 0 -15.9761 0 0 0 
7.30068 -1.73392e-05 0 0 -7.30068 0 0 0 
27.5223 -6.70855e-05 0 0 -27.5223 0 0 0 
23.5169 -5.73223e-05 2.75135e-07 -5.74319e-07 -23.5169 0 0 6305.7 
0 0 0 0 0 0 0 0 
0 0 0 0 0 0 0 0 
0 0 0 0 0 0 0 0 
6.58234 -1.56331e-05 0 0 -6.58234 0 0 0 
6.98025 -1.65781e-05 0 0 -6.98025 0 0 0 
9.29108 -2.20664e-05 0 0 -9.29108 0 0 0 
0 0 0 0 0 0 0 0 
0 0 0 0 0 0 0 0 
7.32047 -1.78436e-05 0 0 -7.32047 0 0 0 
20.7648 -5.06142e-05 0 0 -20.7648 0 0 0 
10.9883 -2.67841e-05 -3.77874e-07 9.99068e-07 -10.9883 0 0 5449.32 
0 0 0 0 0 0 0 0 
0 0 0 0 0 0 0 0 
0 0 0 0 0 0 0 0 
7.35121 -1.74592e-05 0 0 -7.35121 0 0 0 
8.99363 -2.136e-05 -1.28186e-06 -2.28549e-06 -8.99363 0 0 1457.99 
9.57276 -2.27354e-05 1.00047e-06 -1.99532e-07 -9.57276 0 0 3478.96 
10.5873 -2.51449e-05 0 0 -10.5873 0 0 0 
0 0 0 0 0 0 0 0 
0 0 0 0 0 0 0 0 
14.3771 -3.50443e-05 0 0 -14.3771 0 0 0 
0 0 0 0 0 0 0 0 
18.6883 -4.43847e-05 9.7019e-07 -2.16041e-06 -18.6883 0 0 10423.1 
4.63056 -1.09976e-05 0 0 -4.63056 0 0 0 
0 0 0 0 0 0 0 0 
0 0 0 0 0 0 0 0 
19.7295 -4.68577e-05 -5.85411e-07 1.01104e-07 -19.7295 0 0 6113.06 
0 0 0 0 0 0 0 0 
14.717 -3.49531e-05 1.45407e-06 -1.0272e-07 -14.717 0 0 6983.49 
7.84057 -1.86215e-05 0 0 -7.84057 0 0 0 
0 0 0 0 0 0 0 0 
0 0 0 0 0 0 0 0 
7.70729 -1.83048e-05 0 0 -7.70729 0 0 0 
22.7231 -5.39675e-05 0 0 -22.7231 0 0 0 
19.2462 -4.57096e-05 0 0 -19.2462 0 0 0 
7.68551 -1.82531e-05 0 0 -7.68551 0 0 0 
0 0 0 0 0 0 0 0 
0 0 0 0 0 0 0 0 
7.18764 -1.70707e-05 0 0 -7.18764 0 0 0 
4.26257 -1.01237e-05 5.17615e-07 3.22122e-07 -4.26257 0 0 7153.46 
0 0 0 0 0 0 0 0 
0 0 0 0 0 0 0 0 
28.9268 -6.87013e-05 0 0 -28.9268 0 0 0 
0 0 0 0 0 0 0 0 
0 0 0 0 0 0 0 0 
0 0 0 0 0 0 0 0 
7.33541 -1.78801e-05 0 0 -7.33541 0 0 0 
0 0 0 0 0 0 0 0 
12.5823 -2.98831e-05 0 0 -12.5823 0 0 0 
20.4968 -4.86799e-05 0 0 -20.4968 0 0 0 
135.14 -1.68925e-05 0 0 -135.14 0 0 0 
0 0 0 0 0 0 0 0 
0 0 0 0 0 0 0 0 
3.40568 -8.08848e-06 -1.57598e-06 -3.00914e-06 -3.40568 0 0 6786.75 
0 0 0 0 0 0 0 0 
0 0 0 0 0 0 0 0 
0 0 0 0 0 0 0 0 
0 0 0 0 0 0 0 0 
7.0861 -1.68295e-05 0 0 -7.0861 0 0 0 
11.3512 -2.69591e-05 0 0 -11.3512 0 0 0 
0 0 0 0 0 0 0 0 
0 0 0 0 0 0 0 0 
15.5649 -3.69665e-05 0 0 -15.5649 0 0 0 
14.3676 -3.4123e-05 0 0 -14.3676 0 0 0 
0 0 0 0 0 0 0 0 
0 0 0 0 0 0 0 0 
0 0 0 0 0 0 0 0 
0 0 0 0 0 0 0 0 
4.08953 -9.71264e-06 -2.44489e-06 3.7217e-07 -4.08953 0 0 7395.7 
0 0 0 0 0 0 0 0 
0 0 0 0 0 0 0 0 
0 0 0 0 0 0 0 0 
0 0 0 0 0 0 0 0 
25.7454 -6.11455e-05 1.46057e-07 -2.2954e-07 -25.7454 0 0 5693.89 
19.1422 -4.54628e-05 0 0 -19.1422 0 0 0 
8.60255 -2.04311e-05 -9.12081e-08 -1.32199e-06 -8.60255 0 0 16041.7 
0 0 0 0 0 0 0 0 
0 0 0 0 0 0 0 0 
22.5908 -5.36533e-05 0 0 -22.5908 0 0 0 
2.62743 -6.24016e-06 0 0 -2.62743 0 0 0 
7.07989 -1.68148e-05 0 0 -7.07989 0 0 0 
3.9484 -9.37746e-06 -1.06896e-06 6.08168e-07 -3.9484 0 0 6382.48 
0 0 0 0 0 0 0 0 
0 0 0 0 0 0 0 0 
4.69271 -1.11452e-05 1.22795e-06 6.51946e-07 -4.69271 0 0 6096.37 
0 0 0 0 0 0 0 0 
0 0 0 0 0 0 0 0 
0 0 0 0 0 0 0 0 
21.948 -5.21267e-05 0 0 -21.948 0 0 0 
0 0 0 0 0 0 0 0 
0 0 0 0 0 0 0 0 
3.0005 -7.31373e-06 -1.74717e-06 1.80229e-06 -3.0005 0 0 5008.74 
0 0 0 0 0 0 0 0 
151.543 -1.8943e-05 0 0 -151.543 0 0 0 
7.68243 -1.82459e-05 -1.71419e-08 -5.77247e-08 -7.68243 0 0 2060.39 
0 0 0 0 0 0 0 0 
2.25111 -5.3464e-06 0 0 -2.25111 0 0 0 
20.7012 -4.91655e-05 0 0 -20.7012 0 0 0 
0 0 0 0 0 0 0 0 
0 0 0 0 0 0 0 0 
0 0 0 0 0 0 0 0 
11.3029 -2.75509e-05 0 0 -11.3029 0 0 0 
5.04833 -1.19899e-05 0 0 -5.04833 0 0 0 
4.35563 -1.03447e-05 1.69473e-06 4.6937e-07 -4.35563 0 0 6865.76 
0 0 0 0 0 0 0 0 
0 0 0 0 0 0 0 0 
18.6594 -4.43161e-05 -2.05215e-09 -1.23944e-06 -18.6594 0 0 7982.94 
7.13017 -1.69342e-05 0 0 -7.13017 0 0 0 
17.4435 -4.14284e-05 0 0 -17.4435 0 0 0 
0 0 0 0 0 0 0 0 
0 0 0 0 0 0 0 0 
0 0 0 0 0 0 0 0 
2.94191 -6.98704e-06 7.81622e-07 -8.31026e-07 -2.94191 0 0 4374.58 
17.7031 -4.20449e-05 -6.0929e-07 1.00205e-06 -17.7031 0 0 6669.75 
11.2898 -2.68133e-05 -9.94979e-07 -5.61986e-07 -11.2898 0 0 7473.47 
2.52089 -5.98715e-06 4.59029e-07 -5.31537e-07 -2.52089 0 0 4154.6 
0 0 0 0 0 0 0 0 
0 0 0 0 0 0 0 0 
11.0943 -2.63489e-05 0 0 -11.0943 0 0 0 
11.4332 -2.71538e-05 -6.38764e-08 -7.58234e-07 -11.4332 0 0 6157.6 
7.43094 -1.76486e-05 0 0 -7.43094 0 0 0 
7.36632 -1.74951e-05 0 0 -7.36632 0 0 0 
144.766 -1.80959e-05 0 0 -144.766 0 0 0 
0 0 0 0 0 0 0 0 
7.53203 -1.78886e-05 6.76958e-07 -4.72942e-07 -7.53203 0 0 5468.24 
7.31807 -1.73804e-05 0 0 -7.31807 0 0 0 
7.45838 -1.77137e-05 0 0 -7.45838 0 0 0 
18.6413 -4.42731e-05 -3.71591e-07 -7.98634e-07 -18.6413 0 0 4965.8 
0 0 0 0 0 0 0 0 
0 0 0 0 0 0 0 0 
0 0 0 0 0 0 0 0 
1.1206 -2.66143e-06 0 0 -1.1206 0 0 0 
7.07944 -1.68136e-05 0 0 -7.07944 0 0 0 
4.00949 -9.52252e-06 2.66427e-07 5.46166e-07 -4.00949 0 0 6592.25 
0 0 0 0 0 0 0 0 
0 0 0 0 0 0 0 0 
4.8872 -1.16071e-05 0 0 -4.8872 0 0 0 
21.8524 -5.18995e-05 0 0 -21.8524 0 0 0 
0 0 0 0 0 0 0 0 
6.43246 -1.52771e-05 0 0 -6.43246 0 0 0 
0 0 0 0 0 0 0 0 
0 0 0 0 0 0 0 0 
17.1863 -4.08174e-05 -3.78569e-07 7.90559e-07 -17.1863 0 0 4062 
10.3738 -2.46378e-05 5.26484e-07 5.41197e-07 -10.3738 0 0 3602.83 
0 0 0 0 0 0 0 0 
0 0 0 0 0 0 0 0 
19.457 -4.62105e-05 0 0 -19.457 0 0 0 
17.8532 -4.24014e-05 0 0 -17.8532 0 0 0 
0 0 0 0 0 0 0 0 
12.712 -3.01911e-05 0 0 -12.712 0 0 0 
85.098 -1.06373e-05 -4.12909e-07 -7.31272e-07 -85.098 0 0 138785 
0 0 0 0 0 0 0 0 
8.19416 -1.94611e-05 -4.38885e-07 -1.43846e-06 -8.19416 0 0 12481.3 
14.7315 -3.49873e-05 0 0 -14.7315 0 0 0 
0 0 0 0 0 0 0 0 
22.7087 -5.39332e-05 0 0 -22.7087 0 0 0 
0 0 0 0 0 0 0 0 
0 0 0 0 0 0 0 0 
5.10766 -1.21307e-05 0 0 -5.10766 0 0 0 
23.3972 -5.55683e-05 -1.03987e-07 4.22599e-07 -23.3972 0 0 7961.49 
7.96487 -1.89166e-05 0 0 -7.96487 0 0 0 
7.72024 -1.83356e-05 0 0 -7.72024 0 0 0 
0 0 0 0 0 0 0 0 
0 0 0 0 0 0 0 0 
18.2559 -4.33579e-05 0 0 -18.2559 0 0 0 
14.0235 -3.33059e-05 0 0 -14.0235 0 0 0 
0 0 0 0 0 0 0 0 
0 0 0 0 0 0 0 0 
6.96308 -1.65373e-05 0 0 -6.96308 0 0 0 
21.3541 -5.07161e-05 5.34709e-07 -9.05375e-07 -21.3541 0 0 6678.76 
0 0 0 0 0 0 0 0 
0 0 0 0 0 0 0 0 
15.8502 -3.76443e-05 0 0 -15.8502 0 0 0 
6.99498 -1.66131e-05 0 0 -6.99498 0 0 0 
0 0 0 0 0 0 0 0 
133.994 -1.67492e-05 0 0 -133.994 0 0 0 
0 0 0 0 0 0 0 0 
8.14874 -1.93533e-05 -1.43515e-06 -7.33214e-07 -8.14874 0 0 9735.91 
0 0 0 0 0 0 0 0 
0 0 0 0 0 0 0 0 
14.6318 -3.56651e-05 0 0 -14.6318 0 0 0 
0 0 0 0 0 0 0 0 
9.28942 -0.00457903 6.99057e-06 -1.16714e-05 -9.28942 0 0 2074.36 
7.79486 -0.00038 -1.43652e-06 -4.62381e-07 -7.79486 0 0 215.175 
13.9308 -3.4827e-05 0 0 -13.9308 0 0 0 
9.09243 -0.00043189 -1.58015e-06 2.39915e-06 -9.09243 0 0 1743.24 
13.0863 -3.27159e-05 0 0 -13.0863 0 0 0 
8.73604 -0.000414962 2.05972e-06 -3.30067e-06 -8.73604 0 0 1229.27 
7.6818 -1.92045e-05 -7.50334e-08 -4.12973e-07 -7.6818 0 0 5385.03 
8.5577 -0.000406491 -9.75205e-07 -9.98336e-07 -8.5577 0 0 1267.51 
31.4963 -7.87408e-05 1.47841e-06 -1.0371e-06 -31.4963 0 0 6397 
8.96486 -0.000425831 7.44095e-06 -1.17973e-05 -8.96486 0 0 1879.2 
3.07402 -7.68507e-06 0 0 -3.07402 0 0 0 
10.8019 -0.000513089 5.30176e-06 7.73452e-07 -10.8019 0 0 4325.93 
0 0 0 0 0 0 0 0 
9.09578 -0.000432049 -5.60582e-07 -3.27919e-07 -9.09578 0 0 940.217 
27.9821 -6.99557e-05 0 0 -27.9821 0 0 2.54565e-11 
7.49992 -0.000365621 1.9442e-06 -1.57872e-07 -7.49992 0 0 2131.15 
8.93059 -0.00389696 -6.04172e-06 -5.02818e-06 -8.93059 0 0 1540.02 
7.31259 -0.000509767 -4.67475e-06 3.03959e-06 -7.31259 0 0 829.329 
12.5714 -0.00108114 -2.14442e-06 -1.46689e-06 -12.5714 0 0 2465.58 
11.5195 -0.000990673 -1.11544e-06 -2.84142e-06 -11.5195 0 0 2007.89 
9.91342 -0.000483279 -3.68519e-06 -4.4449e-08 -9.91342 0 0 1637.96 
13.4655 -3.36639e-05 0 0 -13.4655 0 0 0 
12.0356 -0.00057169 -2.22812e-07 -5.51253e-07 -12.0356 0 0 2430.95 
6.24271 -1.56068e-05 -5.49837e-07 1.83316e-07 -6.24271 0 0 5554.88 
9.23269 -0.000438553 1.1146e-06 7.3636e-06 -9.23269 0 0 1888.91 
3.80213 -9.50536e-06 5.54892e-07 -6.61314e-07 -3.80213 0 0 3789.48 
13.1286 -0.000623607 -2.77901e-07 -3.15386e-06 -13.1286 0 0 2102.18 
13.302 -3.32549e-05 0 0 -13.302 0 0 0 
7.52113 -0.000357254 -3.16559e-07 1.14543e-06 -7.52113 0 0 763.065 
9.36651 -2.34163e-05 -5.00667e-07 2.59953e-07 -9.36651 0 0 5432.82 
13.2048 -0.000627229 3.29999e-06 -4.18571e-06 -13.2048 0 0 2517.62 
7.1093 -1.77732e-05 0 0 -7.1093 0 0 0 
7.87755 -0.000374183 -1.3606e-06 3.47872e-06 -7.87755 0 0 1473.17 
5.9216 -1.48041e-05 0 0 -5.9216 0 0 5.22184e-12 
8.59849 -0.000419176 4.54491e-06 2.87278e-06 -8.59849 0 0 1520.22 
8.89672 -0.000433715 5.70596e-06 -1.82701e-06 -8.89672 0 0 1591.14 
10.0898 -0.00497353 -2.55944e-06 1.10823e-06 -10.0898 0 0 2307.29 
10.5451 -0.000906878 1.26667e-06 4.20477e-06 -10.5451 0 0 1949.98 
8.95044 -0.000769739 1.49106e-06 1.99804e-07 -8.95044 0 0 1357.92 
9.64325 -0.000126733 1.27823e-06 1.44714e-07 -9.64325 0 0 3368 
8.36186 -0.000407641 8.7884e-07 -2.609e-06 -8.36186 0 0 1532.41 
0 0 0 0 0 0 0 0 
8.29327 -0.00039393 -3.48662e-06 -4.35599e-07 -8.29327 0 0 2957.67 
11.3663 -2.84159e-05 -7.53323e-07 1.10024e-07 -11.3663 0 0 5974.37 
7.65128 -0.000363436 -1.73069e-06 7.55437e-07 -7.65128 0 0 2872.24 
0 0 0 0 0 0 0 0 
7.76336 -0.00036876 -5.17303e-07 -2.00374e-06 -7.76336 0 0 1287.6 
7.7758 -1.94395e-05 0 0 -7.7758 0 0 0 
11.0583 -0.000525271 -1.42737e-06 5.33599e-07 -11.0583 0 0 886.056 
9.79024 -2.44757e-05 -1.54248e-06 1.60545e-06 -9.79024 0 0 4973.65 
11.3155 -0.000537485 -4.1711e-06 1.19952e-06 -11.3155 0 0 2881.12 
3.90547 -9.76365e-06 0 0 -3.90547 0 0 0 
9.79424 -0.000465227 -9.80689e-07 -7.03542e-07 -9.79424 0 0 2088.7 
0 0 0 0 0 0 0 0 
6.22746 -0.000303589 -4.46117e-06 2.13116e-06 -6.22746 0 0 969.93 
9.04858 -0.00446031 7.56376e-06 1.15857e-05 -9.04858 0 0 1760.22 
7.08259 -1.77065e-05 0 0 -7.08259 0 0 0 
10.7881 -0.000512437 -7.28425e-07 -5.53396e-07 -10.7881 0 0 1726.46 
6.75692 -1.68923e-05 0 0 -6.75692 0 0 0 
8.68599 -0.000412585 -4.8061e-06 -1.25857e-06 -8.68599 0 0 1020.31 
26.7664 -6.69162e-05 4.25094e-07 1.56392e-07 -26.7664 0 0 5542.95 
10.5363 -0.000500473 4.38852e-06 -9.28533e-07 -10.5363 0 0 2167.37 
6.72069 -1.68017e-05 0 0 -6.72069 0 0 0 
10.2431 -0.000486546 -1.95683e-06 -3.62915e-06 -10.2431 0 0 2542.59 
18.314 -4.57852e-05 0 0 -18.314 0 0 0 
6.98343 -0.000331713 2.17699e-06 1.98032e-06 -6.98343 0 0 1713.83 
3.83609 -9.5902e-06 -1.04966e-06 -5.39852e-07 -3.83609 0 0 6997.61 
8.10308 -0.000384897 1.15177e-06 8.90073e-07 -8.10308 0 0 1553.1 
12.0739 -3.01849e-05 0 0 -12.0739 0 0 1.04437e-11 
7.64484 -0.000372686 3.05995e-06 -2.65397e-06 -7.64484 0 0 1728.85 
0.180893 -3.1543e-05 0.000105822 -4.16044e-06 0 0.180893 0 92.0817 
0.431494 -7.96742e-06 0.000126212 1.13112e-06 0 0.431494 0 64.6169 
0.413455 -1.09017e-05 0.000120936 1.43053e-06 0 0.413455 0 72.3354 
0 0 0 0 0 0 0 0 
0 0 0 0 0 0 0 0 
1.69498 4.02558e-06 0 0 1.69498 0 0 0 
0 0 0 0 0 0 0 0 
0 0 0 0 0 0 0 0 
0 0 0 0 0 0 0 0 
0 0 0 0 0 0 0 0 
0 0 0 0 0 0 0 0 
0 0 0 0 0 0 0 0 
0 0 0 0 0 0 0 0 
0 0 0 0 0 0 0 0 
0 0 0 0 0 0 0 0 
0 0 0 0 0 0 0 0 
1.12064 2.66151e-06 0 0 1.12064 0 0 0 
0 0 0 0 0 0 0 0 
0 0 0 0 0 0 0 0 
0 0 0 0 0 0 0 0 
0 0 0 0 0 0 0 0 
0 0 0 0 0 0 0 0 
0 0 0 0 0 0 0 0 
0 0 0 0 0 0 0 0 
0.722112 1.71502e-06 0 0 0.722112 0 0 0 
0 0 0 0 0 0 0 0 
0 0 0 0 0 0 0 0 
0 0 0 0 0 0 0 0 
3.77468 8.96489e-06 -2.81895e-07 -6.40038e-07 3.77468 0 0 5403.59 
0 0 0 0 0 0 0 0 
0 0 0 0 0 0 0 0 
0 0 0 0 0 0 0 0 
0 0 0 0 0 0 0 0 
0 0 0 0 0 0 0 0 
1.13139 2.68704e-06 0 0 1.13139 0 0 0 
0 0 0 0 0 0 0 0 
0 0 0 0 0 0 0 0 
0 0 0 0 0 0 0 0 
3.02329 7.74718e-06 0 0 3.02329 0 0 0 
0 0 0 0 0 0 0 0 
0 0 0 0 0 0 0 0 
0 0 0 0 0 0 0 0 
2.44037 5.79587e-06 0 0 2.44037 0 0 0 
0 0 0 0 0 0 0 0 
0 0 0 0 0 0 0 0 
0 0 0 0 0 0 0 0 
0 0 0 0 0 0 0 0 
0 0 0 0 0 0 0 0 
0 0 0 0 0 0 0 0 
0 0 0 0 0 0 0 0 
0 0 0 0 0 0 0 0 
0 0 0 0 0 0 0 0 
0 0 0 0 0 0 0 0 
5.63267 1.33776e-05 0 0 5.63267 0 0 0 
0 0 0 0 0 0 0 0 
0 0 0 0 0 0 0 0 
0 0 0 0 0 0 0 0 
0 0 0 0 0 0 0 0 
0 0 0 0 0 0 0 0 
0 0 0 0 0 0 0 0 
2.98428 7.08767e-06 0 0 2.98428 0 0 0 
0 0 0 0 0 0 0 0 
0 0 0 0 0 0 0 0 
0 0 0 0 0 0 0 0 
0 0 0 0 0 0 0 0 
0 0 0 0 0 0 0 0 
0 0 0 0 0 0 0 0 
0 0 0 0 0 0 0 0 
1.06186 2.5219e-06 0 0 1.06186 0 0 0 
0 0 0 0 0 0 0 0 
0 0 0 0 0 0 0 0 
0 0 0 0 0 0 0 0 
0 0 0 0 0 0 0 0 
0 0 0 0 0 0 0 0 
0 0 0 0 0 0 0 0 
0.789326 1.87465e-06 0 0 0.789326 0 0 0 
0 0 0 0 0 0 0 0 
0 0 0 0 0 0 0 0 
0 0 0 0 0 0 0 0 
0 0 0 0 0 0 0 0 
0 0 0 0 0 0 0 0 
0 0 0 0 0 0 0 0 
0 0 0 0 0 0 0 0 
2.99177 7.10545e-06 3.4507e-08 -1.8287e-06 2.99177 0 0 948.669 
0 0 0 0 0 0 0 0 
20.9756 2.62195e-06 0 0 20.9756 0 0 0 
0 0 0 0 0 0 0 0 
0 0 0 0 0 0 0 0 
4.40455 1.04608e-05 0 0 4.40455 0 0 0 
0 0 0 0 0 0 0 0 
0 0 0 0 0 0 0 0 
0 0 0 0 0 0 0 0 
0 0 0 0 0 0 0 0 
0 0 0 0 0 0 0 0 
1.28264 3.04628e-06 0 0 1.28264 0 0 0 
0 0 0 0 0 0 0 0 
0 0 0 0 0 0 0 0 
0 0 0 0 0 0 0 0 
3.78646 8.99287e-06 0 0 3.78646 0 0 0 
0 0 0 0 0 0 0 0 
0 0 0 0 0 0 0 0 
0 0 0 0 0 0 0 0 
0 0 0 0 0 0 0 0 
0 0 0 0 0 0 0 0 
1.41541 3.3616e-06 0 0 1.41541 0 0 0 
0 0 0 0 0 0 0 0 
0 0 0 0 0 0 0 0 
1.35622 3.22102e-06 -2.1961e-06 2.27149e-06 1.35622 0 0 2396.48 
0 0 0 0 0 0 0 0 
0 0 0 0 0 0 0 0 
0 0 0 0 0 0 0 0 
0.926733 2.201e-06 -1.77155e-06 7.52414e-07 0.926733 0 0 656.107 
0 0 0 0 0 0 0 0 
0 0 0 0 0 0 0 0 
0 0 0 0 0 0 0 0 
0 0 0 0 0 0 0 0 
0 0 0 0 0 0 0 0 
0 0 0 0 0 0 0 0 
0 0 0 0 0 0 0 0 
0 0 0 0 0 0 0 0 
0 0 0 0 0 0 0 0 
2.66989 6.34099e-06 0 0 2.66989 0 0 0 
0 0 0 0 0 0 0 0 
0 0 0 0 0 0 0 0 
0 0 0 0 0 0 0 0 
0 0 0 0 0 0 0 0 
0 0 0 0 0 0 0 0 
0 0 0 0 0 0 0 0 
0 0 0 0 0 0 0 0 
0 0 0 0 0 0 0 0 
0 0 0 0 0 0 0 0 
0 0 0 0 0 0 0 0 
0 0 0 0 0 0 0 0 
0 0 0 0 0 0 0 0 
0 0 0 0 0 0 0 0 
0 0 0 0 0 0 0 0 
0 0 0 0 0 0 0 0 
8.0937 1.92226e-05 0 0 8.0937 0 0 0 
0 0 0 0 0 0 0 0 
0 0 0 0 0 0 0 0 
0 0 0 0 0 0 0 0 
0 0 0 0 0 0 0 0 
4.97925 1.18257e-05 0 0 4.97925 0 0 0 
0 0 0 0 0 0 0 0 
0 0 0 0 0 0 0 0 
0 0 0 0 0 0 0 0 
0 0 0 0 0 0 0 0 
0 0 0 0 0 0 0 0 
0 0 0 0 0 0 0 0 
0 0 0 0 0 0 0 0 
0 0 0 0 0 0 0 0 
0 0 0 0 0 0 0 0 
0 0 0 0 0 0 0 0 
0 0 0 0 0 0 0 0 
0 0 0 0 0 0 0 0 
0 0 0 0 0 0 0 0 
0 0 0 0 0 0 0 0 
0 0 0 0 0 0 0 0 
0 0 0 0 0 0 0 0 
0 0 0 0 0 0 0 0 
1.96346 4.66322e-06 0 0 1.96346 0 0 0 
0 0 0 0 0 0 0 0 
0 0 0 0 0 0 0 0 
0 0 0 0 0 0 0 0 
0 0 0 0 0 0 0 0 
0 0 0 0 0 0 0 0 
0 0 0 0 0 0 0 0 
0 0 0 0 0 0 0 0 
1.76547 4.19301e-06 0 0 1.76547 0 0 0 
0 0 0 0 0 0 0 0 
0 0 0 0 0 0 0 0 
0 0 0 0 0 0 0 0 
0 0 0 0 0 0 0 0 
0 0 0 0 0 0 0 0 
0 0 0 0 0 0 0 0 
0 0 0 0 0 0 0 0 
0 0 0 0 0 0 0 0 
0 0 0 0 0 0 0 0 
0 0 0 0 0 0 0 0 
0 0 0 0 0 0 0 0 
0 0 0 0 0 0 0 0 
0 0 0 0 0 0 0 0 
0 0 0 0 0 0 0 0 
0 0 0 0 0 0 0 0 
0 0 0 0 0 0 0 0 
0 0 0 0 0 0 0 0 
0 0 0 0 0 0 0 0 
0 0 0 0 0 0 0 0 
0 0 0 0 0 0 0 0 
0 0 0 0 0 0 0 0 
0 0 0 0 0 0 0 0 
0 0 0 0 0 0 0 0 
0 0 0 0 0 0 0 0 
0 0 0 0 0 0 0 0 
0 0 0 0 0 0 0 0 
0 0 0 0 0 0 0 0 
0 0 0 0 0 0 0 0 
0 0 0 0 0 0 0 0 
0 0 0 0 0 0 0 0 
0 0 0 0 0 0 0 0 
0 0 0 0 0 0 0 0 
0 0 0 0 0 0 0 0 
0.847138 2.01196e-06 0 0 0.847138 0 0 0 
0 0 0 0 0 0 0 0 
0 0 0 0 0 0 0 0 
0 0 0 0 0 0 0 0 
0 0 0 0 0 0 0 0 
0 0 0 0 0 0 0 0 
0 0 0 0 0 0 0 0 
0 0 0 0 0 0 0 0 
0 0 0 0 0 0 0 0 
0 0 0 0 0 0 0 0 
0 0 0 0 0 0 0 0 
0 0 0 0 0 0 0 0 
0 0 0 0 0 0 0 0 
0 0 0 0 0 0 0 0 
0 0 0 0 0 0 0 0 
0 0 0 0 0 0 0 0 
0 0 0 0 0 0 0 0 
0 0 0 0 0 0 0 0 
0 0 0 0 0 0 0 0 
0 0 0 0 0 0 0 0 
0 0 0 0 0 0 0 0 
0 0 0 0 0 0 0 0 
0 0 0 0 0 0 0 0 
0.80424 1.91007e-06 1.77045e-06 -2.78059e-07 0.80424 0 0 2495.83 
0 0 0 0 0 0 0 0 
0 0 0 0 0 0 0 0 
0 0 0 0 0 0 0 0 
0 0 0 0 0 0 0 0 
3.56057 8.67891e-06 0 0 3.56057 0 0 0 
1.23409 3.00809e-06 0 0 1.23409 0 0 0 
0 0 0 0 0 0 0 0 
3.38478 8.03891e-06 0 0 3.38478 0 0 0 
2.82685 6.71381e-06 0 0 2.82685 0 0 0 
0.616851 1.50358e-06 0 0 0.616851 0 0 0 
0 0 0 0 0 0 0 0 
0 0 0 0 0 0 0 0 
2.25905 5.36527e-06 0 0 2.25905 0 0 0 
0 0 0 0 0 0 0 0 
0 0 0 0 0 0 0 0 
0 0 0 0 0 0 0 0 
0 0 0 0 0 0 0 0 
0.320388 7.80946e-07 0 0 0.320388 0 0 0 
0 0 0 0 0 0 0 0 
0 0 0 0 0 0 0 0 
0 0 0 0 0 0 0 0 
0 0 0 0 0 0 0 0 
0 0 0 0 0 0 0 0 
0 0 0 0 0 0 0 0 
7.51562 1.78496e-05 0 0 7.51562 0 0 0 
0 0 0 0 0 0 0 0 
0 0 0 0 0 0 0 0 
0 0 0 0 0 0 0 0 
0 0 0 0 0 0 0 0 
0 0 0 0 0 0 0 0 
0 0 0 0 0 0 0 0 
0 0 0 0 0 0 0 0 
0 0 0 0 0 0 0 0 
0 0 0 0 0 0 0 0 
0 0 0 0 0 0 0 0 
1.31487 3.20501e-06 0 0 1.31487 0 0 0 
0 0 0 0 0 0 0 0 
0 0 0 0 0 0 0 0 
0 0 0 0 0 0 0 0 
0 0 0 0 0 0 0 0 
0 0 0 0 0 0 0 0 
0 0 0 0 0 0 0 0 
0 0 0 0 0 0 0 0 
14.8949 1.86187e-06 -2.11421e-07 2.56999e-06 14.8949 0 0 24104.3 
0 0 0 0 0 0 0 0 
0 0 0 0 0 0 0 0 
0 0 0 0 0 0 0 0 
0 0 0 0 0 0 0 0 
0 0 0 0 0 0 0 0 
0 0 0 0 0 0 0 0 
0 0 0 0 0 0 0 0 
0 0 0 0 0 0 0 0 
0 0 0 0 0 0 0 0 
0.388115 9.46029e-07 0 0 0.388115 0 0 0 
0 0 0 0 0 0 0 0 
0 0 0 0 0 0 0 0 
0 0 0 0 0 0 0 0 
0 0 0 0 0 0 0 0 
0 0 0 0 0 0 0 0 
0.361899 8.82134e-07 0 0 0.361899 0 0 0 
0 0 0 0 0 0 0 0 
0 0 0 0 0 0 0 0 
0 0 0 0 0 0 0 0 
0 0 0 0 0 0 0 0 
0 0 0 0 0 0 0 0 
0 0 0 0 0 0 0 0 
0 0 0 0 0 0 0 0 
0 0 0 0 0 0 0 0 
0 0 0 0 0 0 0 0 
1.96679 4.67115e-06 3.07572e-06 8.26991e-07 1.96679 0 0 2222.78 
0 0 0 0 0 0 0 0 
0.217526 5.3022e-07 0 0 0.217526 0 0 0 
0 0 0 0 0 0 0 0 
0 0 0 0 0 0 0 0 
0 0 0 0 0 0 0 0 
0 0 0 0 0 0 0 0 
0 0 0 0 0 0 0 0 
0 0 0 0 0 0 0 0 
0 0 0 0 0 0 0 0 
0 0 0 0 0 0 0 0 
0 0 0 0 0 0 0 0 
0 0 0 0 0 0 0 0 
1.22752 2.91536e-06 0 0 1.22752 0 0 0 
0 0 0 0 0 0 0 0 
0 0 0 0 0 0 0 0 
0 0 0 0 0 0 0 0 
0 0 0 0 0 0 0 0 
0 0 0 0 0 0 0 0 
0 0 0 0 0 0 0 0 
0 0 0 0 0 0 0 0 
0 0 0 0 0 0 0 0 
0 0 0 0 0 0 0 0 
0 0 0 0 0 0 0 0 
0 0 0 0 0 0 0 0 
0 0 0 0 0 0 0 0 
0 0 0 0 0 0 0 0 
8.44465 2.05838e-05 0 0 8.44465 0 0 0 
0 0 0 0 0 0 0 0 
0 0 0 0 0 0 0 0 
0 0 0 0 0 0 0 0 
1.9223 4.68561e-06 0 0 1.9223 0 0 0 
0 0 0 0 0 0 0 0 
0 0 0 0 0 0 0 0 
0.249131 -1.39333e-05 -0.000145741 6.57228e-06 0 -0.249131 0 66.4714 
0.371005 -1.84508e-05 -0.000217038 -9.49075e-07 0 -0.371005 0 53.9606 
2.38357 -0.000312701 0.000277793 -0.000284271 -1.19179 1.45963 -1.45963 741.22 
2.35848 -0.00034614 0.000265943 -0.000260222 -1.17924 1.44426 -1.44428 1072.5 
0.0525201 -0.000446575 0.000460893 0.000497249 0 0.0371373 0.0371373 62.8812 
0.052763 -0.000930612 0.00106025 0.00107756 1.25163e-09 0.0373091 0.0373091 59.2373 
0.0450408 -0.000208487 0.00018871 0.000206345 0 0.0318487 0.0318486 68.0327 
0.0615611 -0.000385822 0.000910357 -2.46375e-06 0 0.0615611 0 48.1801 
0.0484759 -0.000397273 0.000716855 -5.69759e-06 0 0.0484759 0 50.5744 
0.0538583 -0.000318486 -8.1504e-06 0.00079645 0 0 0.0538583 40.2331 
0.0518757 -0.000501979 -2.37186e-06 0.000767131 0 0 0.0518757 63.23 
0.0589968 -0.000965261 0.0011685 0.00122189 0 0.0417171 0.0417171 60.3006 
0.0521962 -0.00027665 0.000480412 0.000471822 -7.61988e-10 0.0369083 0.0369083 40.65 
0.0423893 -0.000161807 0.000191354 0.000180444 0 0.0299738 0.0299738 48.241 
2.23469 -0.000303866 -0.000260955 0.000257269 -1.11735 -1.36846 1.36846 800.099 
2.64774 -0.00036396 -0.000303929 0.000306882 -1.32387 -1.62139 1.62141 1051.83 
0.050528 -0.000849809 -0.00101326 -0.00103399 0 -0.0357287 -0.0357287 52.8086 
0.0506866 -0.000427117 -0.000446155 -0.000478538 2.67039e-09 -0.0358408 -0.0358408 62.7395 
0.0484571 -0.000132338 -0.000209554 -0.000215466 0 -0.0342644 -0.0342644 36.2558 
0.0635518 -0.000368487 -0.000939795 3.59377e-06 0 -0.0635518 0 46.0166 
0.0501708 -0.000487644 -0.000741919 -1.39514e-06 0 -0.0501708 0 60.0905 
0.0637866 -0.000470359 5.16293e-07 -0.000943269 0 0 -0.0637866 59.1226 
0.0498995 -0.000431717 4.70157e-06 -0.000737908 0 0 -0.0498995 54.0895 
0.0657479 -0.000379436 -0.000608371 -0.000591092 0 -0.0464908 -0.0464908 53.7267 
0.0527365 -0.000776463 -0.00107712 -0.00105962 -3.46645e-10 -0.0372903 -0.0372903 49.2053 
0.0533838 -0.000219475 -0.000230655 -0.000237578 0 -0.0377481 -0.0377481 64.4116 
0.337912 -3.25727e-05 1.76007e-06 -0.000197679 0 0 -0.337912 121.865 
0.538696 -2.51012e-05 -3.45692e-06 -0.000315137 0 0 -0.538696 93.8123 
0.310644 -2.71251e-05 -0.000177067 4.70412e-07 0 -0.310644 0 115.14 
0.515684 -5.86807e-05 -0.00029394 4.28898e-06 0 -0.515684 0 180.671 
0.385459 -3.46421e-05 -3.86724e-06 0.000225493 0 0 0.385459 118.461 
0.491147 -3.18839e-05 -4.81057e-07 0.000287321 0 0 0.491147 134.812 
0.487461 -2.6822e-05 0.000277853 4.19594e-06 0 0.487461 0 134.317 
0.307727 -2.60896e-05 0.000175405 -1.68821e-06 0 0.307727 0 78.5414 
0.230424 -1.46965e-05 0.000131342 4.61251e-06 0 0.230424 0 80.0459 
0.214352 -2.5594e-05 0.000122181 4.58589e-06 0 0.214352 0 74.3889 
0.211174 -7.33364e-06 -4.19306e-06 -0.000120369 0 0 -0.211174 46.9092 
0.146951 -1.84186e-05 1.24419e-06 -8.3762e-05 0 0 -0.146951 61.5846 
0.176682 -1.90554e-05 -0.000100709 5.72591e-06 0 -0.176682 0 59.4607 
0.229718 -2.68397e-05 -0.000130939 -2.22779e-06 0 -0.229718 0 143.824 
0.195662 -3.83708e-06 -3.96588e-06 0.000111527 0 -3.83621e-08 0.195662 16.2356 
0.139224 -4.32354e-05 5.40504e-06 7.93576e-05 0 -2.72967e-08 0.139224 151.774 
0.282225 -1.42726e-05 0.000160868 -1.72268e-06 0 0.282225 0 37.5709 
0.211652 -2.24057e-05 0.000120641 1.11891e-06 0 0.211652 0 91.8433 
0.295279 -6.21687e-05 4.43033e-07 -0.000168309 0 0 -0.295279 199.373 
0.271351 -1.0226e-05 -2.0826e-06 -0.00015467 0 0 -0.271351 43.3619 
0.233072 -1.48102e-05 -0.000132851 5.32972e-06 0 -0.233072 0 154.371 
0.284728 -4.83846e-05 -0.000162295 -6.87801e-06 0 -0.284728 0 165.464 
0.349194 -8.8217e-06 -7.95278e-07 0.00019904 0 0 0.349194 29.2516 
0.258434 -1.59134e-05 -4.55335e-06 0.000147307 0 0 0.258434 74.8484 
0.349985 -2.09026e-05 -0.000199492 -1.46695e-06 0 -0.349985 0 89.0729 
0.468049 -4.31869e-05 -0.000266788 -4.20953e-06 0 -0.468049 0 178.823 
0.405663 -3.59635e-05 -3.90539e-06 0.000231228 0 0 0.405663 115.949 
0.499049 -3.10602e-05 1.09125e-06 0.000284458 0 0 0.499049 126.312 
0.388085 -6.91718e-06 0.000221209 -4.21261e-07 0 0.388085 0 21.1527 
0.433336 -3.77927e-05 0.000247002 -6.17759e-06 0 0.433336 0 164.519 
0.315593 -2.59364e-05 6.93163e-06 -0.000179888 0 0 -0.315593 97.1889 
0.577255 -5.3871e-05 -9.40496e-07 -0.000329035 0 0 -0.577255 160.55 
0.393271 -6.73599e-05 0.000224164 -1.08561e-05 0 0.393271 0 207.43 
0.449067 -2.31672e-05 0.000255968 1.85514e-06 0 0.449067 0 53.6478 
0.312403 -3.38907e-05 1.94296e-05 -0.00017807 0 0 -0.312403 119.66 
0.402456 -1.66932e-05 6.28047e-06 -0.0002294 0 0 -0.402456 71.963 
0.444119 -9.64817e-06 -0.000253148 -7.90452e-08 0 -0.444119 0 58.3592 
0.476078 -5.43445e-05 -0.000271365 4.91629e-07 0 -0.476078 0 146.897 
0.380246 -5.4019e-05 1.94238e-05 0.00021674 0 0 0.380246 164.258 
0.40415 -2.56531e-05 -4.5413e-06 0.000230365 0 0 0.40415 86.1225 
0.363725 -3.02374e-05 0.000207323 2.45034e-06 0 0.363725 0 95.9294 
0.395711 -3.95125e-05 0.000225555 2.07438e-05 0 0.395711 0 144.035 
0.392033 -5.26071e-05 7.31967e-06 -0.000223459 0 0 -0.392033 187.302 
0.48631 -2.35427e-05 2.37041e-07 -0.000277197 0 0 -0.48631 87.4715 
0.385375 -2.81558e-05 -0.000219664 -1.23559e-05 0 -0.385375 0 132.856 
0.410006 -2.00094e-05 -0.000233703 4.50448e-06 0 -0.410006 0 87.7423 
0.369046 -1.82788e-05 -6.77887e-06 0.000210356 0 0 0.369046 63.5618 
0.507727 -2.77129e-05 7.09383e-06 0.000289405 0 0 0.507727 83.0069 
0.297983 -2.53196e-05 1.51897e-05 -0.00016985 0 0 -0.297983 118.024 
0.269693 -1.40213e-05 -1.84147e-06 -0.000153725 0 0 -0.269693 36.5181 
0.289007 -4.63832e-05 -0.000164734 4.25674e-06 0 -0.289007 0 125.449 
0.288751 -2.2879e-05 -0.000164588 1.77096e-06 0 -0.288751 0 48.827 
0.320587 -4.04756e-05 4.91771e-06 0.000182735 0 0 0.320587 139.351 
0.260713 -5.52727e-06 2.85389e-06 0.000148607 0 0 0.260713 30.3008 
0.299746 -1.21116e-05 0.000170855 4.67363e-06 0 0.299746 0 42.991 
0.240509 -2.23421e-05 0.00013709 -3.37452e-06 0 0.240509 0 92.2452 
0.294381 -3.32759e-05 0.000167797 -6.36901e-06 0 0.294381 0 87.9259 
0.311217 -5.01836e-05 0.000177394 1.14731e-05 0 0.311217 0 150.648 
0.285321 -6.45676e-06 -8.54009e-07 -0.000162633 0 0 -0.285321 34.4313 
0.414992 -2.46722e-05 -2.92754e-06 -0.000236545 0 0 -0.414992 95.9749 
0.344258 -1.73792e-05 -0.000196227 -3.04073e-06 0 -0.344258 0 59.3557 
0.234913 -3.89234e-05 -0.000133901 -4.18597e-07 0 -0.234913 0 113.188 
0.41112 -3.24454e-05 -6.99008e-06 0.000234338 0 0 0.41112 130.028 
0.31301 -3.47361e-05 1.08422e-06 0.000178416 0 0 0.31301 105.595 
0.366269 -2.24849e-05 -8.28976e-06 -0.000208773 0 0 -0.366269 102.351 