ITEM: TIMESTEP
95
ITEM: NUMBER OF SURFS
6916
ITEM: BOX BOUNDS oo rr rr
-0.35 0.35
-0.25 0.25
-0.25 0.25
ITEM: SURFS f_save[1] f_save[2] f_save[3] f_save[4] f_save[5] f_save[6] f_save[7] f_save[8] 
7.75773 -5.82072e-05 0 0 -7.75773 0 0 0 
5.61387 -4.21216e-05 0 0 -5.61387 0 0 0 
0 0 0 0 0 0 0 0 
0.816744 -1.25335e-05 0.000245125 6.26053e-06 0 0.816744 0 90.9884 
0.70213 -5.65813e-05 0.000210711 -2.0053e-05 0 0.70213 0 507.218 
0.75712 -4.03808e-05 -0.000227231 3.40034e-06 0 -0.75712 0 275.933 
0.587479 -2.68294e-05 -0.000176304 -9.43538e-06 0 -0.587479 0 193.708 
0 0 0 0 0 0 0 0 
0 0 0 0 0 0 0 0 
0 0 0 0 0 0 0 0 
0.164496 -3.73079e-05 -3.28873e-07 9.62302e-05 0 0 0.164496 128.051 
0.143324 4.15043e-06 3.11155e-06 8.38447e-05 0 0 0.143324 -0.107395 
0 0 0 0 0 0 0 0 
14.7649 -3.59895e-05 0 0 -14.7649 0 0 0 
0 0 0 0 0 0 0 0 
0 0 0 0 0 0 0 0 
0 0 0 0 0 0 0 0 
0 0 0 0 0 0 0 0 
15.7329 -3.83489e-05 0 0 -15.7329 0 0 0 
10.1243 -2.46781e-05 0 0 -10.1243 0 0 0 
0 0 0 0 0 0 0 0 
0 0 0 0 0 0 0 0 
13.8113 -3.28018e-05 0 0 -13.8113 0 0 0 
9.82447 -2.33332e-05 0 0 -9.82447 0 0 0 
0 0 0 0 0 0 0 0 
0 0 0 0 0 0 0 0 
0 0 0 0 0 0 0 0 
0 0 0 0 0 0 0 0 
13.518 -3.29501e-05 0 0 -13.518 0 0 0 
24.3296 -5.93035e-05 0 0 -24.3296 0 0 0 
0 0 0 0 0 0 0 0 
0 0 0 0 0 0 0 0 
17.5957 -4.17898e-05 2.31721e-06 -7.59061e-07 -17.5957 0 0 13998.2 
0 0 0 0 0 0 0 0 
22.214 -5.27583e-05 -1.97887e-06 -1.48276e-06 -22.214 0 0 12551.9 
0 0 0 0 0 0 0 0 
0 0 0 0 0 0 0 0 
0 0 0 0 0 0 0 0 
13.5282 -3.21294e-05 0 0 -13.5282 0 0 0 
43.4536 -0.000103202 0 0 -43.4536 0 0 0 
0 0 0 0 0 0 0 0 
14.9602 -3.55304e-05 0 0 -14.9602 0 0 0 
30.2589 -7.18649e-05 0 0 -30.2589 0 0 0 
13.1976 -3.13443e-05 0 0 -13.1976 0 0 0 
7.83098 -1.85986e-05 -2.04505e-06 2.55504e-06 -7.83098 0 0 12372.2 
0 0 0 0 0 0 0 0 
30.6822 -7.47877e-05 -1.12123e-06 2.48408e-07 -30.6822 0 0 11487 
4.71789 -1.14998e-05 -1.47623e-06 -6.81943e-07 -4.71789 0 0 8456.13 
14.174 -3.45493e-05 0 0 -14.174 0 0 0 
14.0393 -3.42209e-05 0 0 -14.0393 0 0 0 
14.2503 -3.47351e-05 0 0 -14.2503 0 0 0 
8.78747 -2.14195e-05 0 0 -8.78747 0 0 0 
0 0 0 0 0 0 0 0 
0 0 0 0 0 0 0 0 
0 0 0 0 0 0 0 0 
0 0 0 0 0 0 0 0 
15.1488 -3.59785e-05 0 0 -15.1488 0 0 0 
0 0 0 0 0 0 0 0 
15.4499 -3.66935e-05 0 0 -15.4499 0 0 0 
30.3138 -7.19952e-05 0 0 -30.3138 0 0 0 
13.1793 -3.21246e-05 0 0 -13.1793 0 0 0 
12.6621 -3.08639e-05 0 0 -12.6621 0 0 0 
26.094 -6.36042e-05 0 0 -26.094 0 0 0 
29.4326 -7.1742e-05 0 0 -29.4326 0 0 0 
0 0 0 0 0 0 0 0 
0 0 0 0 0 0 0 0 
13.0445 -3.17962e-05 0 0 -13.0445 0 0 0 
0 0 0 0 0 0 0 0 
15.4831 -3.67725e-05 0 0 -15.4831 0 0 0 
0 0 0 0 0 0 0 0 
19.3048 -4.70558e-05 0 0 -19.3048 0 0 0 
0 0 0 0 0 0 0 0 
0 0 0 0 0 0 0 0 
0 0 0 0 0 0 0 0 
28.1225 -6.85484e-05 0 0 -28.1225 0 0 0 
6.69379 -1.63161e-05 -1.85154e-06 -3.05343e-08 -6.69379 0 0 10383.8 
17.647 -4.30147e-05 -1.91613e-07 1.04171e-06 -17.647 0 0 5742.92 
13.1129 -3.19628e-05 0 0 -13.1129 0 0 0 
5.7971 -1.37681e-05 0 0 -5.7971 0 0 0 
28.7816 -6.83562e-05 0 0 -28.7816 0 0 0 
0 0 0 0 0 0 0 0 
0 0 0 0 0 0 0 0 
29.0036 -6.88838e-05 0 0 -29.0036 0 0 0 
10.3149 -2.44978e-05 0 0 -10.3149 0 0 0 
0 0 0 0 0 0 0 0 
14.3044 -3.39731e-05 0 0 -14.3044 0 0 0 
0 0 0 0 0 0 0 0 
14.725 -3.49719e-05 0 0 -14.725 0 0 0 
0 0 0 0 0 0 0 0 
13.0342 -3.17708e-05 0 0 -13.0342 0 0 0 
5.34464 -1.30276e-05 0 0 -5.34464 0 0 0 
13.8595 -3.37828e-05 0 0 -13.8595 0 0 0 
0 0 0 0 0 0 0 0 
0 0 0 0 0 0 0 0 
28.1722 -6.86699e-05 0 0 -28.1722 0 0 0 
40.5169 -9.87602e-05 3.05657e-06 1.7979e-06 -40.5169 0 0 22545.4 
23.7585 -5.64266e-05 0 0 -23.7585 0 0 0 
4.99921 -1.18731e-05 1.72823e-06 -7.89618e-07 -4.99921 0 0 6271.91 
0 0 0 0 0 0 0 0 
0 0 0 0 0 0 0 0 
14.5807 -3.46292e-05 0 0 -14.5807 0 0 0 
36.7818 -8.7357e-05 -5.28547e-07 5.70546e-07 -36.7818 0 0 15687.5 
0 0 0 0 0 0 0 0 
13.9755 -3.3192e-05 0 0 -13.9755 0 0 0 
0 0 0 0 0 0 0 0 
0 0 0 0 0 0 0 0 
7.7413 -1.83856e-05 7.6401e-07 -5.46581e-07 -7.7413 0 0 13561.8 
0 0 0 0 0 0 0 0 
8.71087 -2.06883e-05 0 0 -8.71087 0 0 0 
0 0 0 0 0 0 0 0 
0 0 0 0 0 0 0 0 
0 0 0 0 0 0 0 0 
0 0 0 0 0 0 0 0 
15.1023 -3.58681e-05 0 0 -15.1023 0 0 0 
0 0 0 0 0 0 0 0 
3.22988 -7.67097e-06 1.25869e-05 -1.57887e-06 -3.22988 0 0 6352.69 
0 0 0 0 0 0 0 0 
0 0 0 0 0 0 0 0 
12.3735 -2.93871e-05 0 0 -12.3735 0 0 0 
0 0 0 0 0 0 0 0 
12.95 -3.07562e-05 0 0 -12.95 0 0 0 
0 0 0 0 0 0 0 0 
0 0 0 0 0 0 0 0 
0 0 0 0 0 0 0 0 
7.48397 -1.77745e-05 -8.25824e-07 -2.46763e-06 -7.48397 0 0 11984.3 
10.2889 -2.44362e-05 0 0 -10.2889 0 0 0 
13.3371 -3.25091e-05 0 0 -13.3371 0 0 0 
0 0 0 0 0 0 0 0 
0 0 0 0 0 0 0 0 
0 0 0 0 0 0 0 0 
0 0 0 0 0 0 0 0 
0 0 0 0 0 0 0 0 
14.902 -3.63236e-05 0 0 -14.902 0 0 0 
12.8115 -3.12281e-05 0 0 -12.8115 0 0 0 
0 0 0 0 0 0 0 0 
0 0 0 0 0 0 0 0 
0 0 0 0 0 0 0 0 
15.1379 -3.59525e-05 0 0 -15.1379 0 0 0 
0 0 0 0 0 0 0 0 
13.9509 -3.40051e-05 0 0 -13.9509 0 0 0 
0 0 0 0 0 0 0 0 
0 0 0 0 0 0 0 0 
22.71 -5.39364e-05 7.64323e-08 3.78501e-07 -22.71 0 0 12181.9 
14.9748 -3.55652e-05 0 0 -14.9748 0 0 0 
0 0 0 0 0 0 0 0 
20.6019 -5.02171e-05 -2.17888e-07 -3.4709e-06 -20.6019 0 0 12648 
0 0 0 0 0 0 0 0 
0 0 0 0 0 0 0 0 
11.7045 -2.77983e-05 0 0 -11.7045 0 0 0 
14.2171 -3.37657e-05 0 0 -14.2171 0 0 0 
39.6578 -9.66659e-05 0 0 -39.6578 0 0 0 
16.9076 -4.12122e-05 5.3579e-07 -1.11841e-06 -16.9076 0 0 12279.5 
0 0 0 0 0 0 0 0 
0 0 0 0 0 0 0 0 
0 0 0 0 0 0 0 0 
0 0 0 0 0 0 0 0 
13.5931 -3.22837e-05 0 0 -13.5931 0 0 0 
4.22098 -1.00248e-05 0 0 -4.22098 0 0 0 
0 0 0 0 0 0 0 0 
0 0 0 0 0 0 0 0 
14.2556 -3.47481e-05 0 0 -14.2556 0 0 0 
13.1316 -3.20081e-05 0 0 -13.1316 0 0 0 
14.7003 -3.58321e-05 0 0 -14.7003 0 0 0 
0 0 0 0 0 0 0 0 
0 0 0 0 0 0 0 0 
0 0 0 0 0 0 0 0 
0 0 0 0 0 0 0 0 
0 0 0 0 0 0 0 0 
3.62473 -8.60879e-06 1.94829e-06 -3.88562e-07 -3.62473 0 0 6774.83 
0 0 0 0 0 0 0 0 
0 0 0 0 0 0 0 0 
0 0 0 0 0 0 0 0 
13.2084 -3.21955e-05 0 0 -13.2084 0 0 0 
0 0 0 0 0 0 0 0 
21.2806 -5.05413e-05 1.88932e-06 -4.20711e-06 -21.2806 0 0 20297.6 
9.0174 -2.14163e-05 0 0 -9.0174 0 0 0 
0 0 0 0 0 0 0 0 
0 0 0 0 0 0 0 0 
18.9594 -4.50288e-05 -1.14001e-06 1.96887e-07 -18.9594 0 0 11904.4 
0 0 0 0 0 0 0 0 
20.7327 -4.92406e-05 0 0 -20.7327 0 0 0 
15.2685 -3.62629e-05 0 0 -15.2685 0 0 0 
0 0 0 0 0 0 0 0 
0 0 0 0 0 0 0 0 
0 0 0 0 0 0 0 0 
13.5985 -3.22964e-05 0 0 -13.5985 0 0 0 
14.8339 -3.52306e-05 0 0 -14.8339 0 0 0 
14.9665 -3.55454e-05 0 0 -14.9665 0 0 0 
0 0 0 0 0 0 0 0 
0 0 0 0 0 0 0 0 
0 0 0 0 0 0 0 0 
8.3008 -1.97145e-05 1.00799e-06 6.2729e-07 -8.3008 0 0 13930.4 
0 0 0 0 0 0 0 0 
0 0 0 0 0 0 0 0 
41.41 -9.83489e-05 0 0 -41.41 0 0 0 
0 0 0 0 0 0 0 0 
0 0 0 0 0 0 0 0 
0 0 0 0 0 0 0 0 
0 0 0 0 0 0 0 0 
0 0 0 0 0 0 0 0 
13.2889 -3.15612e-05 0 0 -13.2889 0 0 0 
0 0 0 0 0 0 0 0 
0 0 0 0 0 0 0 0 
0 0 0 0 0 0 0 0 
0 0 0 0 0 0 0 0 
0 0 0 0 0 0 0 0 
0 0 0 0 0 0 0 0 
0 0 0 0 0 0 0 0 
0 0 0 0 0 0 0 0 
0 0 0 0 0 0 0 0 
0 0 0 0 0 0 0 0 
14.2313 -3.37994e-05 0 0 -14.2313 0 0 0 
0 0 0 0 0 0 0 0 
0 0 0 0 0 0 0 0 
30.3105 -7.19874e-05 0 0 -30.3105 0 0 0 
13.8263 -3.28374e-05 0 0 -13.8263 0 0 0 
0 0 0 0 0 0 0 0 
0 0 0 0 0 0 0 0 
0 0 0 0 0 0 0 0 
0 0 0 0 0 0 0 0 
7.96383 -1.89141e-05 -4.76111e-06 7.24751e-07 -7.96383 0 0 14402.2 
0 0 0 0 0 0 0 0 
0 0 0 0 0 0 0 0 
0 0 0 0 0 0 0 0 
0 0 0 0 0 0 0 0 
50.1358 -0.000119073 2.84428e-07 -4.46999e-07 -50.1358 0 0 11088.1 
15.9087 -3.77833e-05 0 0 -15.9087 0 0 0 
0 0 0 0 0 0 0 0 
0 0 0 0 0 0 0 0 
0 0 0 0 0 0 0 0 
30.2528 -7.18505e-05 0 0 -30.2528 0 0 0 
5.11658 -1.21519e-05 0 0 -5.11658 0 0 0 
13.7872 -3.27446e-05 0 0 -13.7872 0 0 0 
7.68898 -1.82614e-05 -2.08166e-06 1.18433e-06 -7.68898 0 0 12429 
0 0 0 0 0 0 0 0 
0 0 0 0 0 0 0 0 
0 0 0 0 0 0 0 0 
0 0 0 0 0 0 0 0 
0 0 0 0 0 0 0 0 
0 0 0 0 0 0 0 0 
29.7049 -7.05492e-05 0 0 -29.7049 0 0 0 
0 0 0 0 0 0 0 0 
0 0 0 0 0 0 0 0 
5.84308 -1.42425e-05 -3.40239e-06 3.50973e-06 -5.84308 0 0 9753.86 
0 0 0 0 0 0 0 0 
0 0 0 0 0 0 0 0 
14.9605 -3.55315e-05 -3.33815e-08 -1.12411e-07 -14.9605 0 0 4012.33 
0 0 0 0 0 0 0 0 
0 0 0 0 0 0 0 0 
14.6673 -3.48349e-05 0 0 -14.6673 0 0 0 
0 0 0 0 0 0 0 0 
0 0 0 0 0 0 0 0 
0 0 0 0 0 0 0 0 
22.011 -5.36518e-05 0 0 -22.011 0 0 0 
9.83096 -2.33487e-05 0 0 -9.83096 0 0 0 
0 0 0 0 0 0 0 0 
0 0 0 0 0 0 0 0 
0 0 0 0 0 0 0 0 
13.8997 -3.30119e-05 0 0 -13.8997 0 0 0 
0 0 0 0 0 0 0 0 
13.5132 -3.20939e-05 0 0 -13.5132 0 0 0 
0 0 0 0 0 0 0 0 
0 0 0 0 0 0 0 0 
0 0 0 0 0 0 0 0 
0 0 0 0 0 0 0 0 
20.9708 -4.98056e-05 -1.18651e-06 1.95137e-06 -20.9708 0 0 12988.5 
8.07259 -1.91724e-05 -1.93759e-06 -1.09439e-06 -8.07259 0 0 14553.6 
0 0 0 0 0 0 0 0 
0 0 0 0 0 0 0 0 
0 0 0 0 0 0 0 0 
12.3006 -2.92141e-05 0 0 -12.3006 0 0 0 
14.7666 -3.50708e-05 0 0 -14.7666 0 0 0 
14.4708 -3.43683e-05 0 0 -14.4708 0 0 0 
0 0 0 0 0 0 0 0 
281.912 -3.52393e-05 0 0 -281.912 0 0 0 
0 0 0 0 0 0 0 0 
0 0 0 0 0 0 0 0 
0 0 0 0 0 0 0 0 
0 0 0 0 0 0 0 0 
29.7666 -7.06958e-05 0 0 -29.7666 0 0 0 
0 0 0 0 0 0 0 0 
0 0 0 0 0 0 0 0 
0 0 0 0 0 0 0 0 
0 0 0 0 0 0 0 0 
13.7863 -3.27424e-05 0 0 -13.7863 0 0 0 
7.80795 -1.85439e-05 5.18832e-07 1.06359e-06 -7.80795 0 0 12837.5 
0 0 0 0 0 0 0 0 
0 0 0 0 0 0 0 0 
9.51718 -2.26033e-05 0 0 -9.51718 0 0 0 
42.5546 -0.000101067 0 0 -42.5546 0 0 0 
0 0 0 0 0 0 0 0 
0 0 0 0 0 0 0 0 
0 0 0 0 0 0 0 0 
0 0 0 0 0 0 0 0 
4.84052 -1.14962e-05 -7.37213e-07 1.53951e-06 -4.84052 0 0 7910.21 
0 0 0 0 0 0 0 0 
0 0 0 0 0 0 0 0 
0 0 0 0 0 0 0 0 
0 0 0 0 0 0 0 0 
13.9565 -3.31468e-05 0 0 -13.9565 0 0 0 
0 0 0 0 0 0 0 0 
0 0 0 0 0 0 0 0 
165.717 -2.07147e-05 -8.04085e-07 -1.42406e-06 -165.717 0 0 270265 
0 0 0 0 0 0 0 0 
8.19169 -1.94553e-05 -6.9584e-07 1.17847e-06 -8.19169 0 0 12547.7 
0 0 0 0 0 0 0 0 
0 0 0 0 0 0 0 0 
13.751 -3.26588e-05 0 0 -13.751 0 0 0 
0 0 0 0 0 0 0 0 
0 0 0 0 0 0 0 0 
9.94649 -2.36229e-05 0 0 -9.94649 0 0 0 
9.80823 -2.32945e-05 0 0 -9.80823 0 0 0 
0 0 0 0 0 0 0 0 
0 0 0 0 0 0 0 0 
0 0 0 0 0 0 0 0 
0 0 0 0 0 0 0 0 
13.2662 -3.15073e-05 0 0 -13.2662 0 0 0 
12.9407 -3.07343e-05 0 0 -12.9407 0 0 0 
0 0 0 0 0 0 0 0 
0 0 0 0 0 0 0 0 
13.5597 -3.22043e-05 0 0 -13.5597 0 0 0 
37.7246 -8.9596e-05 1.04128e-06 -1.7631e-06 -37.7246 0 0 13006 
0 0 0 0 0 0 0 0 
0 0 0 0 0 0 0 0 
14.9513 -3.55092e-05 0 0 -14.9513 0 0 0 
13.6218 -3.23518e-05 0 0 -13.6218 0 0 0 
0 0 0 0 0 0 0 0 
0 0 0 0 0 0 0 0 
0 0 0 0 0 0 0 0 
9.3061 -2.2102e-05 0 0 -9.3061 0 0 0 
0 0 0 0 0 0 0 0 
0 0 0 0 0 0 0 0 
14.5255 -3.54061e-05 0 0 -14.5255 0 0 0 
0 0 0 0 0 0 0 0 
8.6261 -0.00425206 1.09872e-05 -1.17014e-05 -8.6261 0 0 1561.67 
7.77586 -0.000379073 0 0 -7.77586 0 0 0 
13.7448 -3.43622e-05 0 0 -13.7448 0 0 0 
9.99749 -0.000474881 -5.18322e-08 4.28811e-06 -9.99749 0 0 1275.1 
12.5008 -3.1252e-05 0 0 -12.5008 0 0 0 
6.68632 -0.0003176 3.97243e-06 -4.04232e-06 -6.68632 0 0 1099.8 
8.01351 -2.00338e-05 0 0 -8.01351 0 0 7.62666e-12 
9.37423 -0.000445276 2.00702e-06 1.62282e-06 -9.37423 0 0 1255.24 
27.9977 -6.99943e-05 0 0 -27.9977 0 0 0 
8.36198 -0.000397194 2.95251e-06 1.23146e-06 -8.36198 0 0 602.641 
5.98625 -1.49657e-05 0 0 -5.98625 0 0 0 
10.6426 -0.000505522 4.62916e-06 5.82625e-06 -10.6426 0 0 3716.85 
0 0 0 0 0 0 0 0 
7.54748 -0.000358505 1.24083e-06 8.81171e-07 -7.54748 0 0 559 
26.5224 -6.63063e-05 0 0 -26.5224 0 0 2.4151e-11 
6.46409 -0.000315124 1.50926e-06 4.59887e-07 -6.46409 0 0 1700.54 
8.57118 -0.00374012 -5.28941e-06 -1.13356e-05 -8.57118 0 0 1185.51 
7.86805 -0.000548488 -5.02901e-06 3.9116e-06 -7.86805 0 0 688.149 
11.3596 -0.000976929 -7.87655e-06 -2.90437e-07 -11.3596 0 0 2264.8 
10.8014 -0.00092892 -6.60395e-07 -3.12338e-06 -10.8014 0 0 1605.21 
8.37761 -0.000408408 -4.5324e-06 8.511e-07 -8.37761 0 0 1658.86 
0 0 0 0 0 0 0 0 
9.45556 -0.000449139 -8.05936e-07 7.02935e-07 -9.45556 0 0 2694.76 
0 0 0 0 0 0 0 0 
6.46048 -0.000306873 5.74291e-07 2.11611e-07 -6.46048 0 0 821.196 
7.40416 -1.85104e-05 1.08058e-06 -1.28782e-06 -7.40416 0 0 7379.51 
9.98804 -0.000474432 5.61188e-07 -2.95251e-06 -9.98804 0 0 1439.93 
13.1268 -3.28169e-05 0 0 -13.1268 0 0 0 
7.18224 -0.000341156 1.01955e-06 2.20838e-06 -7.18224 0 0 631.584 
0 0 0 0 0 0 0 0 
11.9927 -0.000569654 9.05882e-07 -4.90751e-06 -11.9927 0 0 1193.79 
0 0 0 0 0 0 0 0 
7.54599 -0.000358435 -8.58534e-07 2.00975e-06 -7.54599 0 0 819.777 
11.5315 -2.8829e-05 0 0 -11.5315 0 0 1.01688e-11 
7.50979 -0.000366102 1.18439e-06 1.86296e-06 -7.50979 0 0 1233.6 
11.2154 -0.00054675 1.39334e-05 -4.70009e-06 -11.2154 0 0 1411.4 
9.53579 -0.00470047 1.02824e-05 6.03171e-06 -9.53579 0 0 2401.12 
10.5339 -0.000905916 -2.45879e-08 -2.46874e-06 -10.5339 0 0 1085.93 
9.17058 -0.000788671 2.68686e-06 3.40751e-06 -9.17058 0 0 960.66 
6.58064 -8.64837e-05 8.44833e-07 -5.59204e-07 -6.58064 0 0 4436.75 
6.71604 -0.000327407 2.40755e-06 -6.56339e-07 -6.71604 0 0 1860.51 
0 0 0 0 0 0 0 0 
6.21397 -0.000295163 -2.78082e-06 -1.8835e-06 -6.21397 0 0 3680.97 
7.39288 -1.84822e-05 -1.467e-06 2.14258e-07 -7.39288 0 0 11634.3 
7.16277 -0.000340231 -6.72651e-07 2.67459e-06 -7.16277 0 0 3834.65 
0 0 0 0 0 0 0 0 
5.64544 -0.000268158 1.30062e-09 -2.96705e-06 -5.64544 0 0 799.246 
15.1423 -3.78559e-05 0 0 -15.1423 0 0 0 
14.2763 -0.000678123 -2.01717e-06 -1.08021e-06 -14.2763 0 0 559.496 
12.6649 -3.16624e-05 0 0 -12.6649 0 0 1.01689e-11 
12.9411 -0.000614704 -5.37627e-06 -1.49096e-06 -12.9411 0 0 4111.44 
0 0 0 0 0 0 0 0 
9.20105 -0.00043705 -2.01055e-07 -1.3835e-06 -9.20105 0 0 3176.41 
0 0 0 0 0 0 0 0 
6.56797 -0.000320188 -5.83418e-06 4.2409e-06 -6.56797 0 0 617.57 
8.97621 -0.00442463 -4.32222e-06 1.56704e-05 -8.97621 0 0 1313.53 
0 0 0 0 0 0 0 0 
8.4921 -0.000403375 8.568e-07 -1.79835e-06 -8.4921 0 0 652.821 
13.1582 -3.28956e-05 0 0 -13.1582 0 0 0 
9.15041 -0.000434645 -6.00251e-06 1.74969e-06 -9.15041 0 0 1049.65 
12.3981 -3.09952e-05 0 0 -12.3981 0 0 1.01689e-11 
9.47637 -0.000450128 3.37573e-06 -2.22887e-06 -9.47637 0 0 2566.47 
0 0 0 0 0 0 0 0 
13.0317 -0.000619004 -8.07863e-06 -6.11127e-06 -13.0317 0 0 3067.87 
26.7619 -6.6905e-05 0 0 -26.7619 0 0 0 
6.10113 -0.000289804 4.85447e-06 -8.67482e-07 -6.10113 0 0 1852.77 
7.47027 -1.86757e-05 -2.04407e-06 -1.05129e-06 -7.47027 0 0 13626.9 
5.61989 -0.000266945 2.08907e-06 1.59159e-06 -5.61989 0 0 1134.25 
10.6712 -2.6678e-05 0 0 -10.6712 0 0 8.89774e-12 
6.0806 -0.000296429 2.54616e-06 3.8387e-07 -6.0806 0 0 1197.13 
0.0566333 -2.29895e-05 3.31305e-05 -2.25261e-07 0 0.0566333 0 66.3893 
0.0828179 -1.56862e-05 2.42242e-05 -1.3332e-06 0 0.0828179 0 111.017 
0 0 0 0 0 0 0 0 
0 0 0 0 0 0 0 0 
0 0 0 0 0 0 0 0 
0 0 0 0 0 0 0 0 
0 0 0 0 0 0 0 0 
0 0 0 0 0 0 0 0 
0 0 0 0 0 0 0 0 
0 0 0 0 0 0 0 0 
0 0 0 0 0 0 0 0 
0 0 0 0 0 0 0 0 
0 0 0 0 0 0 0 0 
0 0 0 0 0 0 0 0 
0 0 0 0 0 0 0 0 
0 0 0 0 0 0 0 0 
0 0 0 0 0 0 0 0 
0 0 0 0 0 0 0 0 
0 0 0 0 0 0 0 0 
0 0 0 0 0 0 0 0 
0 0 0 0 0 0 0 0 
0 0 0 0 0 0 0 0 
0 0 0 0 0 0 0 0 
0 0 0 0 0 0 0 0 
0 0 0 0 0 0 0 0 
0 0 0 0 0 0 0 0 
0 0 0 0 0 0 0 0 
0 0 0 0 0 0 0 0 
7.3507 1.74579e-05 -5.48953e-07 -1.24639e-06 7.3507 0 0 10522.8 
0 0 0 0 0 0 0 0 
0 0 0 0 0 0 0 0 
0 0 0 0 0 0 0 0 
0 0 0 0 0 0 0 0 
0 0 0 0 0 0 0 0 
0 0 0 0 0 0 0 0 
0 0 0 0 0 0 0 0 
0 0 0 0 0 0 0 0 
0 0 0 0 0 0 0 0 
0 0 0 0 0 0 0 0 
0 0 0 0 0 0 0 0 
0 0 0 0 0 0 0 0 
0 0 0 0 0 0 0 0 
0 0 0 0 0 0 0 0 
0 0 0 0 0 0 0 0 
0 0 0 0 0 0 0 0 
0 0 0 0 0 0 0 0 
0 0 0 0 0 0 0 0 
0 0 0 0 0 0 0 0 
0 0 0 0 0 0 0 0 
0 0 0 0 0 0 0 0 
0 0 0 0 0 0 0 0 
0 0 0 0 0 0 0 0 
0 0 0 0 0 0 0 0 
0 0 0 0 0 0 0 0 
0 0 0 0 0 0 0 0 
0 0 0 0 0 0 0 0 
0 0 0 0 0 0 0 0 
0 0 0 0 0 0 0 0 
0 0 0 0 0 0 0 0 
0 0 0 0 0 0 0 0 
0 0 0 0 0 0 0 0 
0 0 0 0 0 0 0 0 
0 0 0 0 0 0 0 0 
0 0 0 0 0 0 0 0 
0 0 0 0 0 0 0 0 
0 0 0 0 0 0 0 0 
0 0 0 0 0 0 0 0 
0 0 0 0 0 0 0 0 
0 0 0 0 0 0 0 0 
0 0 0 0 0 0 0 0 
0 0 0 0 0 0 0 0 
0 0 0 0 0 0 0 0 
0 0 0 0 0 0 0 0 
0 0 0 0 0 0 0 0 
0 0 0 0 0 0 0 0 
0 0 0 0 0 0 0 0 
0 0 0 0 0 0 0 0 
0 0 0 0 0 0 0 0 
0 0 0 0 0 0 0 0 
0 0 0 0 0 0 0 0 
0 0 0 0 0 0 0 0 
0 0 0 0 0 0 0 0 
0 0 0 0 0 0 0 0 
0 0 0 0 0 0 0 0 
0 0 0 0 0 0 0 0 
0 0 0 0 0 0 0 0 
0 0 0 0 0 0 0 0 
0 0 0 0 0 0 0 0 
8.57727 2.03711e-05 0 0 8.57727 0 0 0 
0 0 0 0 0 0 0 0 
0 0 0 0 0 0 0 0 
0 0 0 0 0 0 0 0 
0 0 0 0 0 0 0 0 
0 0 0 0 0 0 0 0 
0 0 0 0 0 0 0 0 
0 0 0 0 0 0 0 0 
0 0 0 0 0 0 0 0 
0 0 0 0 0 0 0 0 
0 0 0 0 0 0 0 0 
0 0 0 0 0 0 0 0 
0 0 0 0 0 0 0 0 
0 0 0 0 0 0 0 0 
0 0 0 0 0 0 0 0 
0 0 0 0 0 0 0 0 
0 0 0 0 0 0 0 0 
0 0 0 0 0 0 0 0 
0 0 0 0 0 0 0 0 
0 0 0 0 0 0 0 0 
0 0 0 0 0 0 0 0 
0 0 0 0 0 0 0 0 
0 0 0 0 0 0 0 0 
0 0 0 0 0 0 0 0 
0 0 0 0 0 0 0 0 
0 0 0 0 0 0 0 0 
0 0 0 0 0 0 0 0 
0 0 0 0 0 0 0 0 
0 0 0 0 0 0 0 0 
0 0 0 0 0 0 0 0 
0 0 0 0 0 0 0 0 
0 0 0 0 0 0 0 0 
0 0 0 0 0 0 0 0 
0 0 0 0 0 0 0 0 
0 0 0 0 0 0 0 0 
0 0 0 0 0 0 0 0 
0 0 0 0 0 0 0 0 
0 0 0 0 0 0 0 0 
0 0 0 0 0 0 0 0 
0 0 0 0 0 0 0 0 
0 0 0 0 0 0 0 0 
0 0 0 0 0 0 0 0 
0 0 0 0 0 0 0 0 
0 0 0 0 0 0 0 0 
0 0 0 0 0 0 0 0 
0 0 0 0 0 0 0 0 
0 0 0 0 0 0 0 0 
0 0 0 0 0 0 0 0 
0 0 0 0 0 0 0 0 
13.5452 3.217e-05 0 0 13.5452 0 0 0 
0 0 0 0 0 0 0 0 
0 0 0 0 0 0 0 0 
0 0 0 0 0 0 0 0 
0 0 0 0 0 0 0 0 
0 0 0 0 0 0 0 0 
0 0 0 0 0 0 0 0 
0 0 0 0 0 0 0 0 
0 0 0 0 0 0 0 0 
0 0 0 0 0 0 0 0 
0 0 0 0 0 0 0 0 
0 0 0 0 0 0 0 0 
0 0 0 0 0 0 0 0 
0 0 0 0 0 0 0 0 
0 0 0 0 0 0 0 0 
0 0 0 0 0 0 0 0 
0 0 0 0 0 0 0 0 
0 0 0 0 0 0 0 0 
0 0 0 0 0 0 0 0 
0 0 0 0 0 0 0 0 
0 0 0 0 0 0 0 0 
0 0 0 0 0 0 0 0 
0 0 0 0 0 0 0 0 
0 0 0 0 0 0 0 0 
0 0 0 0 0 0 0 0 
0 0 0 0 0 0 0 0 
0 0 0 0 0 0 0 0 
0 0 0 0 0 0 0 0 
0 0 0 0 0 0 0 0 
0 0 0 0 0 0 0 0 
0 0 0 0 0 0 0 0 
0 0 0 0 0 0 0 0 
0 0 0 0 0 0 0 0 
0 0 0 0 0 0 0 0 
0 0 0 0 0 0 0 0 
0 0 0 0 0 0 0 0 
0 0 0 0 0 0 0 0 
0 0 0 0 0 0 0 0 
0 0 0 0 0 0 0 0 
0 0 0 0 0 0 0 0 
0 0 0 0 0 0 0 0 
0 0 0 0 0 0 0 0 
0 0 0 0 0 0 0 0 
0 0 0 0 0 0 0 0 
0 0 0 0 0 0 0 0 
0 0 0 0 0 0 0 0 
0 0 0 0 0 0 0 0 
0 0 0 0 0 0 0 0 
0 0 0 0 0 0 0 0 
0 0 0 0 0 0 0 0 
0 0 0 0 0 0 0 0 
0 0 0 0 0 0 0 0 
0 0 0 0 0 0 0 0 
0 0 0 0 0 0 0 0 
0 0 0 0 0 0 0 0 
0 0 0 0 0 0 0 0 
0 0 0 0 0 0 0 0 
0 0 0 0 0 0 0 0 
0 0 0 0 0 0 0 0 
0 0 0 0 0 0 0 0 
0 0 0 0 0 0 0 0 
0 0 0 0 0 0 0 0 
0 0 0 0 0 0 0 0 
0 0 0 0 0 0 0 0 
0 0 0 0 0 0 0 0 
0 0 0 0 0 0 0 0 
0 0 0 0 0 0 0 0 
0 0 0 0 0 0 0 0 
0 0 0 0 0 0 0 0 
0 0 0 0 0 0 0 0 
0 0 0 0 0 0 0 0 
0 0 0 0 0 0 0 0 
0 0 0 0 0 0 0 0 
0 0 0 0 0 0 0 0 
0 0 0 0 0 0 0 0 
0 0 0 0 0 0 0 0 
0 0 0 0 0 0 0 0 
0 0 0 0 0 0 0 0 
0 0 0 0 0 0 0 0 
0 0 0 0 0 0 0 0 
0 0 0 0 0 0 0 0 
0 0 0 0 0 0 0 0 
0 0 0 0 0 0 0 0 
0 0 0 0 0 0 0 0 
0 0 0 0 0 0 0 0 
0 0 0 0 0 0 0 0 
0 0 0 0 0 0 0 0 
0 0 0 0 0 0 0 0 
0 0 0 0 0 0 0 0 
0 0 0 0 0 0 0 0 
0 0 0 0 0 0 0 0 
0 0 0 0 0 0 0 0 
0 0 0 0 0 0 0 0 
0 0 0 0 0 0 0 0 
0 0 0 0 0 0 0 0 
0 0 0 0 0 0 0 0 
0 0 0 0 0 0 0 0 
0 0 0 0 0 0 0 0 
0 0 0 0 0 0 0 0 
0 0 0 0 0 0 0 0 
0 0 0 0 0 0 0 0 
0 0 0 0 0 0 0 0 
0 0 0 0 0 0 0 0 
0 0 0 0 0 0 0 0 
0 0 0 0 0 0 0 0 
0 0 0 0 0 0 0 0 
0 0 0 0 0 0 0 0 
0 0 0 0 0 0 0 0 
0 0 0 0 0 0 0 0 
0 0 0 0 0 0 0 0 
0 0 0 0 0 0 0 0 
0 0 0 0 0 0 0 0 
0 0 0 0 0 0 0 0 
0 0 0 0 0 0 0 0 
0 0 0 0 0 0 0 0 
0 0 0 0 0 0 0 0 
0 0 0 0 0 0 0 0 
0 0 0 0 0 0 0 0 
0 0 0 0 0 0 0 0 
0 0 0 0 0 0 0 0 
0 0 0 0 0 0 0 0 
0 0 0 0 0 0 0 0 
0 0 0 0 0 0 0 0 
0 0 0 0 0 0 0 0 
2.56054 6.24133e-06 0 0 2.56054 0 0 0 
0 0 0 0 0 0 0 0 
0 0 0 0 0 0 0 0 
0 0 0 0 0 0 0 0 
0 0 0 0 0 0 0 0 
0 0 0 0 0 0 0 0 
0 0 0 0 0 0 0 0 
0 0 0 0 0 0 0 0 
0 0 0 0 0 0 0 0 
0 0 0 0 0 0 0 0 
0 0 0 0 0 0 0 0 
0 0 0 0 0 0 0 0 
0 0 0 0 0 0 0 0 
0 0 0 0 0 0 0 0 
0 0 0 0 0 0 0 0 
0 0 0 0 0 0 0 0 
0 0 0 0 0 0 0 0 
0 0 0 0 0 0 0 0 
0 0 0 0 0 0 0 0 
0 0 0 0 0 0 0 0 
0 0 0 0 0 0 0 0 
0 0 0 0 0 0 0 0 
0 0 0 0 0 0 0 0 
0 0 0 0 0 0 0 0 
0 0 0 0 0 0 0 0 
0 0 0 0 0 0 0 0 
0 0 0 0 0 0 0 0 
0 0 0 0 0 0 0 0 
0 0 0 0 0 0 0 0 
0 0 0 0 0 0 0 0 
0 0 0 0 0 0 0 0 
0 0 0 0 0 0 0 0 
0 0 0 0 0 0 0 0 
0 0 0 0 0 0 0 0 
0 0 0 0 0 0 0 0 
0 0 0 0 0 0 0 0 
0.423603 1.03253e-06 0 0 0.423603 0 0 0 
0 0 0 0 0 0 0 0 
0 0 0 0 0 0 0 0 
0 0 0 0 0 0 0 0 
0 0 0 0 0 0 0 0 
0 0 0 0 0 0 0 0 
0 0 0 0 0 0 0 0 
0 0 0 0 0 0 0 0 
0 0 0 0 0 0 0 0 
0 0 0 0 0 0 0 0 
0 0 0 0 0 0 0 0 
0 0 0 0 0 0 0 0 
0 0 0 0 0 0 0 0 
0 0 0 0 0 0 0 0 
0 0 0 0 0 0 0 0 
0 0 0 0 0 0 0 0 
0 0 0 0 0 0 0 0 
0 0 0 0 0 0 0 0 
0 0 0 0 0 0 0 0 
0 0 0 0 0 0 0 0 
0 0 0 0 0 0 0 0 
0 0 0 0 0 0 0 0 
0 0 0 0 0 0 0 0 
0 0 0 0 0 0 0 0 
0 0 0 0 0 0 0 0 
14.2995 3.4855e-05 0 0 14.2995 0 0 0 
0 0 0 0 0 0 0 0 
0 0 0 0 0 0 0 0 
0 0 0 0 0 0 0 0 
0 0 0 0 0 0 0 0 
0 0 0 0 0 0 0 0 
0 0 0 0 0 0 0 0 
0.0329803 0 -1.92935e-05 0 0 -0.0329803 0 0 
0.0454607 0 -2.65945e-05 0 0 -0.0454607 0 0 
2.31186 -0.000297379 0.000269946 -0.000280037 -1.15593 1.41572 -1.41572 588.667 
1.90797 -0.000295677 0.000209504 -0.00020337 -0.953983 1.16838 -1.16839 1030.37 
0.0400254 -0.00043566 0.000355687 0.00037451 0 0.0283022 0.0283022 59.582 
0.031185 -0.000758217 0.000638292 0.000625235 7.39763e-10 0.0220511 0.0220511 47.0103 
0.0254406 -0.000165132 0.00011359 0.000109551 0 0.0179892 0.0179892 51.3407 
0.043964 -0.000387426 0.000650134 -6.65209e-06 0 0.043964 0 50.6368 
0.0305459 -0.000326431 0.000451708 -4.67408e-06 0 0.0305459 0 39.5479 
0.0336542 -0.000221452 -8.72482e-06 0.000497673 0 0 0.0336542 26.5003 
0.0273592 -0.000485252 5.60044e-06 0.000404584 0 0 0.0273592 61.6279 
0.0394683 -0.000803052 0.000800146 0.000799 0 0.0279083 0.0279083 49.1271 
0.035691 -0.000212876 0.000324828 0.000326296 -5.21036e-10 0.0252374 0.0252374 29.96 
0.0285556 -0.00011808 0.000116097 0.000134366 0 0.0201919 0.0201919 36.526 
2.14885 -0.000279558 -0.000253419 0.000255215 -1.07442 -1.3159 1.3159 605.351 
2.69026 -0.000352101 -0.000314618 0.000320456 -1.34513 -1.64743 1.64745 893.712 
0.0333554 -0.000686013 -0.000676154 -0.000675316 0 -0.0235859 -0.0235859 42.0457 
0.0314673 -0.000266395 -0.000287822 -0.000286248 1.65784e-09 -0.0222508 -0.0222508 34.7475 
0.0355626 -0.000139974 -0.000152574 -0.000159348 0 -0.0251466 -0.0251466 37.139 
0.0406687 -0.000312783 -0.000601403 1.04807e-05 0 -0.0406687 0 38.8089 
0.0322741 -0.000394659 -0.000477265 1.60421e-05 0 -0.0322741 0 48.8387 
0.0320126 -0.000321544 -1.54974e-05 -0.000473398 0 0 -0.0320126 39.5406 
0.0374286 -0.00041577 1.69711e-06 -0.00055349 0 0 -0.0374286 50.8299 
0.0356776 -0.000250263 -0.0003213 -0.000329579 0 -0.0252279 -0.0252279 33.8771 
0.0335049 -0.000643194 -0.000677396 -0.00068013 -2.20233e-10 -0.0236916 -0.0236916 40.2053 
0.0287791 -0.000159716 -0.000125148 -0.000127276 0 -0.0203499 -0.0203499 47.781 
0.21089 -3.03144e-05 5.63069e-06 -0.000123371 0 0 -0.21089 143.005 
0.198133 -2.38477e-05 -1.54879e-06 -0.000115908 0 0 -0.198133 67.9047 
0.18754 -1.91866e-05 -0.000106898 -5.431e-06 0 -0.18754 0 59.4596 
0.271138 -3.38187e-05 -0.000154549 -9.21672e-07 0 -0.271138 0 86.638 
0.231263 -2.68251e-05 -7.78414e-06 0.000135289 0 0 0.231263 75.5889 
0.213706 -3.23927e-05 -2.65042e-06 0.000125018 0 0 0.213706 133.479 
0.249712 -3.63049e-05 0.000142336 4.92105e-06 0 0.249712 0 116.416 
0.224082 -3.20015e-05 0.000127727 -8.07039e-06 0 0.224082 0 94.7819 
0.0875951 0 4.99292e-05 0 0 0.0875951 0 4.51231e-14 
0.0566986 -2.45315e-05 3.23182e-05 -1.02323e-06 0 0.0566986 0 83.2167 
0.0675044 -1.1823e-05 -4.2203e-06 -3.84775e-05 0 0 -0.0675044 56.7953 
0.0370033 -1.16631e-05 -1.13042e-06 -2.10919e-05 0 0 -0.0370033 34.3697 
0.0431243 -3.70416e-05 -2.45808e-05 2.06077e-06 0 -0.0431243 0 96.8272 
0.0605608 -1.1853e-05 -3.45196e-05 -5.35056e-06 0 -0.0605608 0 76.3512 
0.0746188 5.13076e-07 7.99897e-07 4.25327e-05 0 -1.463e-08 0.0746188 -2.59645 
0.0591844 -2.99773e-05 -3.86629e-06 3.37351e-05 0 -1.16039e-08 0.0591844 115.127 
0.146808 -1.51321e-05 8.36808e-05 4.40909e-07 0 0.146808 0 42.4078 
0.116355 -2.81683e-05 6.63222e-05 -1.95352e-06 0 0.116355 0 130.886 
0.136402 -5.60359e-05 5.39672e-06 -7.77489e-05 0 0 -0.136402 169.515 
0.0899823 2.9923e-06 3.05055e-06 -5.12899e-05 0 0 -0.0899823 1.15449 
0.108194 -3.06148e-05 -6.16708e-05 2.64406e-06 0 -0.108194 0 151.218 
0.161541 -7.31768e-05 -9.20785e-05 -1.39897e-06 0 -0.161541 0 233.257 
0.11966 -3.75647e-06 2.58753e-06 6.82064e-05 0 0 0.11966 17.2572 
0.114005 2.32563e-06 3.07809e-06 6.49828e-05 0 0 0.114005 -0.762749 
0.124126 -2.09828e-05 -7.07519e-05 6.31648e-08 0 -0.124126 0 75.6675 
0.11707 -2.82051e-05 -6.67297e-05 -4.41036e-07 0 -0.11707 0 93.4356 
0.244375 -3.32306e-05 1.18874e-06 0.000139294 0 0 0.244375 97.0631 
0.163522 -3.29155e-05 5.37637e-07 9.32074e-05 0 0 0.163522 106.34 
0.126068 1.62108e-06 7.18585e-05 -3.93805e-07 0 0.126068 0 -2.29544 
0.0859931 -2.4628e-05 4.9016e-05 -2.1215e-06 0 0.0859931 0 83.2131 
0.11934 -3.80416e-05 1.18071e-05 -6.80236e-05 0 0 -0.11934 139.507 
0.295894 -6.00191e-05 -5.82127e-06 -0.00016866 0 0 -0.295894 146.751 
0.170121 -3.42293e-05 9.69691e-05 -5.09791e-06 0 0.170121 0 119.221 
0.284069 -2.04733e-05 0.000161919 2.86903e-06 0 0.284069 0 51.1421 
0.166183 -5.69248e-05 1.66119e-05 -9.47241e-05 0 0 -0.166183 164.651 
0.203681 -5.91616e-06 1.13133e-05 -0.000116098 0 0 -0.203681 5.89658 
0.295884 -7.80439e-06 -0.000168654 -5.2274e-06 0 -0.295884 0 36.4323 
0.206366 -4.69958e-05 -0.000117628 8.36847e-06 0 -0.206366 0 103.048 
0.195944 -1.6237e-05 6.29161e-06 0.000111688 0 0 0.195944 51.6337 
0.174549 -3.05366e-05 -2.00778e-06 9.94927e-05 0 0 0.174549 101.437 
0.189058 -1.02999e-05 0.000107763 -6.65262e-06 0 0.189058 0 52.5728 
0.0688105 -1.1696e-05 3.9222e-05 -1.76224e-06 0 0.0688105 0 33.3268 
0.122746 -3.16585e-05 1.00957e-05 -6.9965e-05 0 0 -0.122746 140.531 
0.0946644 -1.95791e-05 9.00671e-06 -5.39587e-05 0 0 -0.0946644 97.5852 
0.209662 -6.54103e-06 -0.000119507 -1.64464e-05 0 -0.209662 0 70.4143 
0.118813 -2.22499e-06 -6.77235e-05 3.33574e-06 0 -0.118813 0 1.09044 
0.168106 -2.07485e-05 -5.01181e-07 9.58202e-05 0 0 0.168106 67.9846 
0.148597 -1.05518e-06 1.08217e-06 8.47001e-05 0 0 0.148597 0.0238894 
0.11511 -1.60474e-05 -9.49156e-07 -6.56129e-05 0 0 -0.11511 44.9074 
0.0930556 0 0 -5.30417e-05 0 0 -0.0930556 3.38859e-14 
0.089531 -1.89041e-05 -5.10327e-05 -6.2288e-07 0 -0.089531 0 48.5567 
0.097548 -2.76008e-06 -5.56024e-05 -3.73065e-07 0 -0.097548 0 -1.52525 
0.0905118 -3.90369e-05 9.88374e-06 5.15917e-05 0 0 0.0905118 136.446 
0.135528 -1.31307e-05 9.93053e-07 7.72511e-05 0 0 0.135528 37.8629 
0.0867713 0 4.94597e-05 0 0 0.0867713 0 2.44127e-14 
0.103925 2.23596e-06 5.92371e-05 1.28096e-06 0 0.103925 0 -0.549999 
0.20175 -5.19741e-05 0.000114998 -5.02161e-06 0 0.20175 0 126.845 
0.151127 -4.69267e-05 8.61421e-05 3.94862e-06 0 0.151127 0 121.107 
0.0744983 1.38841e-07 3.34281e-06 -4.2464e-05 0 0 -0.0744983 1.088 
0.181991 4.5123e-07 5.82671e-07 -0.000103735 0 0 -0.181991 -0.26186 
0.223011 -2.46524e-06 -0.000127116 8.42503e-06 0 -0.223011 0 18.2053 
0.0952152 -4.44805e-05 -5.42727e-05 3.41705e-06 0 -0.0952152 0 114.696 
0.127509 -7.11104e-06 -5.41451e-06 7.26799e-05 0 0 0.127509 32.1151 
0.174273 -3.42821e-05 2.76394e-06 9.93359e-05 0 0 0.174273 88.2918 
0.232697 -2.701e-05 -1.31681e-05 -0.000132637 0 0 -0.232697 99.5428 
0.187937 -2.75987e-05 1.49596e-06 -0.000107124 0 0 -0.187937 84.1375 
0.331523 -1.55506e-05 -0.000188968 8.94549e-06 0 -0.331523 0 46.1242 
0.0906073 -2.44713e-05 -5.16461e-05 6.16509e-06 0 -0.0906073 0 72.9191 
0.216571 -2.13559e-06 -2.78389e-08 0.000123446 0 0 0.216571 1.50876 
0.141038 -3.66774e-05 6.70305e-06 8.03917e-05 0 0 0.141038 111.049 
0.220724 -4.50388e-05 0.000125812 -1.37571e-07 0 0.220724 4.32758e-08 140.264 
0.135093 -2.51136e-06 7.70032e-05 -5.14507e-07 0 0.135093 2.64868e-08 1.73124 
0.142147 -1.07828e-05 2.31273e-07 -8.10238e-05 0 0 -0.142147 44.3272 
0.121361 -3.85584e-05 6.04839e-06 -6.91759e-05 0 0 -0.121361 111.486 
0.20642 -1.4258e-05 -0.000117659 -1.51463e-06 0 -0.20642 -4.04735e-08 65.8386 
0.213485 -2.02178e-05 -0.000121687 2.54588e-06 0 -0.213485 -4.18588e-08 53.4574 
0.201932 -3.98278e-06 9.56862e-06 0.000115101 0 0 0.201932 17.4659 
0.114627 -1.03173e-05 4.00551e-07 6.53376e-05 0 0 0.114627 30.5183 
0.203219 -3.38532e-05 0.000115835 3.41541e-06 0 0.203219 0 91.7811 
0.25059 -2.04515e-05 0.000142836 4.27829e-06 0 0.25059 0 57.2633 
0.107767 -3.75939e-05 -4.60898e-06 6.30436e-05 0 0 0.107767 122.11 
0.129958 1.26988e-06 -3.61395e-07 7.60252e-05 0 0 0.129958 0.912093 
0.306733 -3.51039e-05 0.000174838 -9.26031e-07 0 0.306733 0 99.0747 
0.134284 -1.38196e-05 7.65417e-05 -8.2126e-06 0 0.134284 0 24.8774 
0.162572 -1.87568e-05 1.19828e-05 -9.51048e-05 0 0 -0.162572 24.1996 
0.0847975 -3.79066e-05 6.10509e-06 -4.96066e-05 0 0 -0.0847975 139.647 
0.0977289 -1.70301e-05 -5.57055e-05 -1.10739e-06 0 -0.0977289 0 51.9496 
0.312459 -1.09137e-05 -0.000178101 -6.68495e-07 0 -0.312459 0 60.5745 
0.194336 -4.45001e-05 -3.17448e-06 0.000113686 0 0 0.194336 136.079 
0.286406 -1.24461e-05 1.15028e-06 0.000167547 0 0 0.286406 24.7594 
0.139311 -2.54078e-05 7.94072e-05 -1.44982e-06 0 0.139311 0 56.1842 
0.218684 -4.81612e-05 0.00012465 -1.57904e-06 0 0.218684 0 134.25 
0.116943 -1.43127e-05 2.27834e-06 -6.84119e-05 0 0 -0.116943 40.5575 
0.282901 -2.48021e-07 -9.46273e-07 -0.000165497 0 0 -0.282901 0.0288582 
0.235298 -1.50822e-05 -0.00013412 -8.69686e-06 0 -0.235298 0 49.575 
0.150322 -1.04473e-05 -8.56833e-05 -4.87378e-06 0 -0.150322 0 34.2058 
0.0706412 0 0 -4.02655e-05 0 0 -0.0706412 0 
0.125144 -1.67066e-06 3.72217e-07 -7.13322e-05 0 0 -0.125144 -0.638764 
0.129037 -2.24755e-05 -7.35508e-05 -1.49865e-05 0 -0.129037 0 67.1532 
0.0727697 -1.47651e-05 -4.14787e-05 -1.38398e-06 0 -0.0727697 0 55.4274 
0.0745918 -2.15311e-05 4.68062e-06 4.25173e-05 0 0 0.0745918 73.7718 
0.101932 -5.21523e-05 1.64969e-06 5.8101e-05 0 0 0.101932 162.007 
0.0916199 -1.14209e-05 5.22233e-05 9.90889e-06 0 0.0916199 0 30.2112 
0.084505 -3.60894e-05 4.81678e-05 -1.23093e-07 0 0.084505 0 113.673 
0.0354702 -4.40933e-06 3.64554e-06 2.075e-05 0 0 0.0354702 36.1291 
0.0271175 -1.66283e-05 1.87658e-06 1.58638e-05 0 0 0.0271175 45.5012 
0.060638 0 3.54732e-05 0 0 0.060638 0 0 
0.026463 1.42269e-06 1.54809e-05 -2.74714e-06 0 0.026463 0 -0.907642 
0.0296427 1.24618e-06 -9.02839e-07 -1.73409e-05 0 0 -0.0296427 -1.72057 
0.00546403 0 0 -1.59823e-06 0 0 -0.00546403 0 
0.0107583 0 0 -3.14682e-06 0 0 -0.0107583 0 
0.071031 -2.53015e-05 -4.15531e-05 -4.50742e-06 0 -0.071031 0 83.4064 
0.0238282 -9.41271e-07 -6.96973e-06 -3.44608e-08 0 -0.0238282 0 2.18472 
0.0183667 0 -5.37226e-06 0 0 -0.0183667 0 0 
0.148596 -7.02673e-05 7.91357e-06 8.69284e-05 0 0 0.148596 210.002 
0.0733952 2.22103e-07 1.76387e-06 4.29362e-05 0 0 0.0733952 0.914136 
0.238347 -3.52787e-05 0.000135858 -5.40201e-06 0 0.238347 0 114.765 
0.0825219 -2.4313e-06 4.70375e-05 -4.92378e-06 0 0.0825219 0 -0.274599 