ITEM: TIMESTEP
65
ITEM: NUMBER OF SURFS
6916
ITEM: BOX BOUNDS oo rr rr
-0.35 0.35
-0.25 0.25
-0.25 0.25
ITEM: SURFS f_save[1] f_save[2] f_save[3] f_save[4] f_save[5] f_save[6] f_save[7] f_save[8] 
6.09806 -4.57545e-05 0 0 -6.09806 0 0 0 
0 0 0 0 0 0 0 0 
0 0 0 0 0 0 0 0 
0.575457 -1.65638e-05 0.000172709 -1.70178e-06 0 0.575457 0 109.2 
0.4584 -5.82503e-05 0.000137567 -1.2486e-05 0 0.4584 0 439.634 
0.678998 -3.93543e-05 -0.000203784 3.28429e-06 0 -0.678998 0 259.803 
0.343468 -2.34331e-05 -0.000103076 -1.181e-05 0 -0.343468 0 169.014 
0 0 0 0 0 0 0 0 
0 0 0 0 0 0 0 0 
0 0 0 0 0 0 0 0 
0.135925 -1.63973e-05 -1.21877e-06 7.95162e-05 0 0 0.135925 51.6205 
0.144352 3.35366e-06 2.10501e-06 8.44458e-05 0 0 0.144352 -0.761696 
0 0 0 0 0 0 0 0 
21.5795 -5.26001e-05 0 0 -21.5795 0 0 0 
0 0 0 0 0 0 0 0 
0 0 0 0 0 0 0 0 
0 0 0 0 0 0 0 0 
0 0 0 0 0 0 0 0 
22.9942 -5.60484e-05 0 0 -22.9942 0 0 0 
14.7971 -3.6068e-05 0 0 -14.7971 0 0 0 
0 0 0 0 0 0 0 0 
0 0 0 0 0 0 0 0 
20.1857 -4.79411e-05 0 0 -20.1857 0 0 0 
0 0 0 0 0 0 0 0 
0 0 0 0 0 0 0 0 
0 0 0 0 0 0 0 0 
0 0 0 0 0 0 0 0 
0 0 0 0 0 0 0 0 
0 0 0 0 0 0 0 0 
35.5587 -8.66744e-05 0 0 -35.5587 0 0 0 
0 0 0 0 0 0 0 0 
0 0 0 0 0 0 0 0 
25.7167 -6.10774e-05 3.38669e-06 -1.1094e-06 -25.7167 0 0 20459 
0 0 0 0 0 0 0 0 
0 0 0 0 0 0 0 0 
0 0 0 0 0 0 0 0 
0 0 0 0 0 0 0 0 
0 0 0 0 0 0 0 0 
19.7719 -4.69583e-05 0 0 -19.7719 0 0 0 
63.5091 -0.000150834 0 0 -63.5091 0 0 0 
0 0 0 0 0 0 0 0 
21.8648 -5.19291e-05 0 0 -21.8648 0 0 0 
0 0 0 0 0 0 0 0 
19.2888 -4.58109e-05 0 0 -19.2888 0 0 0 
0 0 0 0 0 0 0 0 
0 0 0 0 0 0 0 0 
34.114 -8.31526e-05 0 0 -34.114 0 0 0 
6.89537 -1.68074e-05 -2.15757e-06 -9.96687e-07 -6.89537 0 0 12359 
0 0 0 0 0 0 0 0 
20.519 -5.00152e-05 0 0 -20.519 0 0 0 
20.8273 -5.07667e-05 0 0 -20.8273 0 0 0 
12.8432 -3.13054e-05 0 0 -12.8432 0 0 0 
0 0 0 0 0 0 0 0 
0 0 0 0 0 0 0 0 
0 0 0 0 0 0 0 0 
0 0 0 0 0 0 0 0 
22.1405 -5.25839e-05 0 0 -22.1405 0 0 0 
0 0 0 0 0 0 0 0 
0 0 0 0 0 0 0 0 
44.3048 -0.000105224 0 0 -44.3048 0 0 0 
19.262 -4.69513e-05 0 0 -19.262 0 0 0 
18.5061 -4.51088e-05 0 0 -18.5061 0 0 0 
19.4665 -4.74497e-05 0 0 -19.4665 0 0 0 
22.0364 -5.37138e-05 0 0 -22.0364 0 0 0 
0 0 0 0 0 0 0 0 
0 0 0 0 0 0 0 0 
0 0 0 0 0 0 0 0 
0 0 0 0 0 0 0 0 
0 0 0 0 0 0 0 0 
0 0 0 0 0 0 0 0 
28.2148 -6.87739e-05 0 0 -28.2148 0 0 0 
0 0 0 0 0 0 0 0 
0 0 0 0 0 0 0 0 
0 0 0 0 0 0 0 0 
21.4279 -5.22305e-05 0 0 -21.4279 0 0 0 
0 0 0 0 0 0 0 0 
25.7918 -6.28677e-05 -2.80049e-07 1.5225e-06 -25.7918 0 0 8393.5 
19.165 -4.67149e-05 0 0 -19.165 0 0 0 
8.47268 -2.01226e-05 0 0 -8.47268 0 0 0 
42.0654 -9.99053e-05 0 0 -42.0654 0 0 0 
0 0 0 0 0 0 0 0 
0 0 0 0 0 0 0 0 
20.7573 -4.92986e-05 0 0 -20.7573 0 0 0 
15.0756 -3.58045e-05 0 0 -15.0756 0 0 0 
0 0 0 0 0 0 0 0 
0 0 0 0 0 0 0 0 
0 0 0 0 0 0 0 0 
0 0 0 0 0 0 0 0 
0 0 0 0 0 0 0 0 
0 0 0 0 0 0 0 0 
0 0 0 0 0 0 0 0 
0 0 0 0 0 0 0 0 
0 0 0 0 0 0 0 0 
0 0 0 0 0 0 0 0 
20.6209 -5.02636e-05 0 0 -20.6209 0 0 0 
39.4229 -9.60934e-05 4.46729e-06 2.6277e-06 -39.4229 0 0 32951 
34.724 -8.24697e-05 0 0 -34.724 0 0 0 
7.30653 -1.7353e-05 2.52588e-06 -1.15406e-06 -7.30653 0 0 9166.63 
0 0 0 0 0 0 0 0 
0 0 0 0 0 0 0 0 
0 0 0 0 0 0 0 0 
34.0438 -8.08543e-05 -7.72492e-07 8.33874e-07 -34.0438 0 0 22927.8 
0 0 0 0 0 0 0 0 
0 0 0 0 0 0 0 0 
0 0 0 0 0 0 0 0 
0 0 0 0 0 0 0 0 
11.3142 -2.68712e-05 1.11663e-06 -7.98849e-07 -11.3142 0 0 19821.1 
0 0 0 0 0 0 0 0 
0 0 0 0 0 0 0 0 
0 0 0 0 0 0 0 0 
0 0 0 0 0 0 0 0 
0 0 0 0 0 0 0 0 
0 0 0 0 0 0 0 0 
22.0727 -5.24227e-05 0 0 -22.0727 0 0 0 
0 0 0 0 0 0 0 0 
0 0 0 0 0 0 0 0 
0 0 0 0 0 0 0 0 
0 0 0 0 0 0 0 0 
18.0844 -4.29503e-05 0 0 -18.0844 0 0 0 
0 0 0 0 0 0 0 0 
0 0 0 0 0 0 0 0 
0 0 0 0 0 0 0 0 
0 0 0 0 0 0 0 0 
0 0 0 0 0 0 0 0 
10.9381 -2.59781e-05 -1.20697e-06 -3.60654e-06 -10.9381 0 0 17515.6 
15.0376 -3.57144e-05 0 0 -15.0376 0 0 0 
0 0 0 0 0 0 0 0 
0 0 0 0 0 0 0 0 
0 0 0 0 0 0 0 0 
0 0 0 0 0 0 0 0 
0 0 0 0 0 0 0 0 
0 0 0 0 0 0 0 0 
21.7798 -5.30884e-05 0 0 -21.7798 0 0 0 
18.7245 -4.56411e-05 0 0 -18.7245 0 0 0 
0 0 0 0 0 0 0 0 
0 0 0 0 0 0 0 0 
0 0 0 0 0 0 0 0 
22.1246 -5.25459e-05 0 0 -22.1246 0 0 0 
0 0 0 0 0 0 0 0 
20.3897 -4.96998e-05 0 0 -20.3897 0 0 0 
0 0 0 0 0 0 0 0 
0 0 0 0 0 0 0 0 
33.1916 -7.88301e-05 1.11709e-07 5.53194e-07 -33.1916 0 0 17804.3 
0 0 0 0 0 0 0 0 
0 0 0 0 0 0 0 0 
11.1583 -2.71983e-05 -3.18451e-07 -5.07285e-06 -11.1583 0 0 18485.5 
0 0 0 0 0 0 0 0 
0 0 0 0 0 0 0 0 
0 0 0 0 0 0 0 0 
20.7789 -4.93499e-05 0 0 -20.7789 0 0 0 
57.9614 -0.000141281 0 0 -57.9614 0 0 0 
24.7111 -6.02332e-05 7.83078e-07 -1.6346e-06 -24.7111 0 0 17947 
0 0 0 0 0 0 0 0 
0 0 0 0 0 0 0 0 
0 0 0 0 0 0 0 0 
0 0 0 0 0 0 0 0 
19.8669 -4.71839e-05 0 0 -19.8669 0 0 0 
6.16913 -1.46517e-05 0 0 -6.16913 0 0 0 
0 0 0 0 0 0 0 0 
0 0 0 0 0 0 0 0 
20.8352 -5.07857e-05 0 0 -20.8352 0 0 0 
19.1923 -4.67811e-05 0 0 -19.1923 0 0 0 
0 0 0 0 0 0 0 0 
0 0 0 0 0 0 0 0 
0 0 0 0 0 0 0 0 
0 0 0 0 0 0 0 0 
0 0 0 0 0 0 0 0 
0 0 0 0 0 0 0 0 
5.29769 -1.25821e-05 2.8475e-06 -5.67899e-07 -5.29769 0 0 9901.67 
0 0 0 0 0 0 0 0 
0 0 0 0 0 0 0 0 
0 0 0 0 0 0 0 0 
0 0 0 0 0 0 0 0 
0 0 0 0 0 0 0 0 
12.8083 -3.04196e-05 0 0 -12.8083 0 0 0 
13.1793 -3.13007e-05 0 0 -13.1793 0 0 0 
0 0 0 0 0 0 0 0 
0 0 0 0 0 0 0 0 
10.7832 -2.56102e-05 -1.66617e-06 2.87758e-07 -10.7832 0 0 17398.7 
0 0 0 0 0 0 0 0 
22.85 -5.4269e-05 0 0 -22.85 0 0 0 
0 0 0 0 0 0 0 0 
0 0 0 0 0 0 0 0 
0 0 0 0 0 0 0 0 
0 0 0 0 0 0 0 0 
0 0 0 0 0 0 0 0 
21.6804 -5.14908e-05 0 0 -21.6804 0 0 0 
21.8742 -5.1951e-05 0 0 -21.8742 0 0 0 
0 0 0 0 0 0 0 0 
0 0 0 0 0 0 0 0 
0 0 0 0 0 0 0 0 
0 0 0 0 0 0 0 0 
0 0 0 0 0 0 0 0 
0 0 0 0 0 0 0 0 
39.0018 -9.26296e-05 0 0 -39.0018 0 0 0 
0 0 0 0 0 0 0 0 
0 0 0 0 0 0 0 0 
0 0 0 0 0 0 0 0 
0 0 0 0 0 0 0 0 
0 0 0 0 0 0 0 0 
19.4223 -4.61279e-05 0 0 -19.4223 0 0 0 
0 0 0 0 0 0 0 0 
0 0 0 0 0 0 0 0 
0 0 0 0 0 0 0 0 
0 0 0 0 0 0 0 0 
0 0 0 0 0 0 0 0 
0 0 0 0 0 0 0 0 
0 0 0 0 0 0 0 0 
0 0 0 0 0 0 0 0 
0 0 0 0 0 0 0 0 
0 0 0 0 0 0 0 0 
20.7997 -4.93991e-05 0 0 -20.7997 0 0 0 
0 0 0 0 0 0 0 0 
0 0 0 0 0 0 0 0 
22.2067 -5.27408e-05 0 0 -22.2067 0 0 0 
20.2076 -4.79931e-05 0 0 -20.2076 0 0 0 
0 0 0 0 0 0 0 0 
0 0 0 0 0 0 0 0 
0 0 0 0 0 0 0 0 
0 0 0 0 0 0 0 0 
0 0 0 0 0 0 0 0 
0 0 0 0 0 0 0 0 
0 0 0 0 0 0 0 0 
0 0 0 0 0 0 0 0 
0 0 0 0 0 0 0 0 
51.9856 -0.000123466 4.15702e-07 -6.53306e-07 -51.9856 0 0 16205.7 
23.2512 -5.52217e-05 0 0 -23.2512 0 0 0 
0 0 0 0 0 0 0 0 
0 0 0 0 0 0 0 0 
0 0 0 0 0 0 0 0 
44.2156 -0.000105012 0 0 -44.2156 0 0 0 
0 0 0 0 0 0 0 0 
20.1505 -4.78575e-05 0 0 -20.1505 0 0 0 
0 0 0 0 0 0 0 0 
0 0 0 0 0 0 0 0 
0 0 0 0 0 0 0 0 
0 0 0 0 0 0 0 0 
0 0 0 0 0 0 0 0 
0 0 0 0 0 0 0 0 
0 0 0 0 0 0 0 0 
0 0 0 0 0 0 0 0 
0 0 0 0 0 0 0 0 
0 0 0 0 0 0 0 0 
8.53988 -2.0816e-05 -4.97272e-06 5.12961e-06 -8.53988 0 0 14255.6 
0 0 0 0 0 0 0 0 
0 0 0 0 0 0 0 0 
18.2358 -4.33103e-05 0 0 -18.2358 0 0 0 
0 0 0 0 0 0 0 0 
0 0 0 0 0 0 0 0 
21.4368 -5.09125e-05 0 0 -21.4368 0 0 0 
0 0 0 0 0 0 0 0 
0 0 0 0 0 0 0 0 
0 0 0 0 0 0 0 0 
18.8897 -4.60436e-05 0 0 -18.8897 0 0 0 
14.3683 -3.4125e-05 0 0 -14.3683 0 0 0 
0 0 0 0 0 0 0 0 
0 0 0 0 0 0 0 0 
0 0 0 0 0 0 0 0 
0 0 0 0 0 0 0 0 
0 0 0 0 0 0 0 0 
19.7501 -4.69065e-05 0 0 -19.7501 0 0 0 
0 0 0 0 0 0 0 0 
0 0 0 0 0 0 0 0 
0 0 0 0 0 0 0 0 
0 0 0 0 0 0 0 0 
0 0 0 0 0 0 0 0 
0 0 0 0 0 0 0 0 
0 0 0 0 0 0 0 0 
0 0 0 0 0 0 0 0 
0 0 0 0 0 0 0 0 
17.9778 -4.26975e-05 0 0 -17.9778 0 0 0 
21.582 -5.12573e-05 0 0 -21.582 0 0 0 
0 0 0 0 0 0 0 0 
0 0 0 0 0 0 0 0 
0 0 0 0 0 0 0 0 
0 0 0 0 0 0 0 0 
0 0 0 0 0 0 0 0 
0 0 0 0 0 0 0 0 
0 0 0 0 0 0 0 0 
43.505 -0.000103325 0 0 -43.505 0 0 0 
0 0 0 0 0 0 0 0 
0 0 0 0 0 0 0 0 
0 0 0 0 0 0 0 0 
0 0 0 0 0 0 0 0 
20.1492 -4.78542e-05 0 0 -20.1492 0 0 0 
0 0 0 0 0 0 0 0 
0 0 0 0 0 0 0 0 
0 0 0 0 0 0 0 0 
13.9097 -3.30357e-05 0 0 -13.9097 0 0 0 
62.1952 -0.000147714 0 0 -62.1952 0 0 0 
0 0 0 0 0 0 0 0 
0 0 0 0 0 0 0 0 
0 0 0 0 0 0 0 0 
0 0 0 0 0 0 0 0 
0 0 0 0 0 0 0 0 
0 0 0 0 0 0 0 0 
0 0 0 0 0 0 0 0 
0 0 0 0 0 0 0 0 
0 0 0 0 0 0 0 0 
20.398 -4.84453e-05 0 0 -20.398 0 0 0 
0 0 0 0 0 0 0 0 
0 0 0 0 0 0 0 0 
242.202 -3.02753e-05 -1.1752e-06 -2.08131e-06 -242.202 0 0 395003 
0 0 0 0 0 0 0 0 
11.9725 -2.84346e-05 -1.017e-06 1.72238e-06 -11.9725 0 0 18338.9 
0 0 0 0 0 0 0 0 
0 0 0 0 0 0 0 0 
20.0977 -4.77321e-05 0 0 -20.0977 0 0 0 
0 0 0 0 0 0 0 0 
0 0 0 0 0 0 0 0 
14.5372 -3.45257e-05 0 0 -14.5372 0 0 0 
14.3351 -3.40458e-05 0 0 -14.3351 0 0 0 
0 0 0 0 0 0 0 0 
0 0 0 0 0 0 0 0 
0 0 0 0 0 0 0 0 
0 0 0 0 0 0 0 0 
19.3891 -4.60492e-05 0 0 -19.3891 0 0 0 
0 0 0 0 0 0 0 0 
0 0 0 0 0 0 0 0 
0 0 0 0 0 0 0 0 
0 0 0 0 0 0 0 0 
55.1359 -0.000130948 1.52186e-06 -2.57684e-06 -55.1359 0 0 19008.8 
0 0 0 0 0 0 0 0 
0 0 0 0 0 0 0 0 
21.8518 -5.18981e-05 0 0 -21.8518 0 0 0 
19.9088 -4.72834e-05 0 0 -19.9088 0 0 0 
0 0 0 0 0 0 0 0 
0 0 0 0 0 0 0 0 
0 0 0 0 0 0 0 0 
0 0 0 0 0 0 0 0 
0 0 0 0 0 0 0 0 
0 0 0 0 0 0 0 0 
21.2296 -5.17474e-05 0 0 -21.2296 0 0 0 
0 0 0 0 0 0 0 0 
8.06032 -0.00397317 8.20252e-06 -1.4623e-05 -8.06032 0 0 1527.35 
7.04295 -0.000343344 0 0 -7.04295 0 0 0 
0 0 0 0 0 0 0 0 
8.41578 -0.000399749 3.25278e-07 4.56591e-06 -8.41578 0 0 927.523 
0 0 0 0 0 0 0 0 
7.36985 -0.000350068 5.80586e-06 -5.90801e-06 -7.36985 0 0 1607.41 
0 0 0 0 0 0 0 0 
10.469 -0.000497278 1.22701e-06 3.78427e-06 -10.469 0 0 1527.52 
40.9197 -0.000102299 0 0 -40.9197 0 0 0 
7.68716 -0.00036514 0 0 -7.68716 0 0 0 
1.54426 -3.86067e-06 0 0 -1.54426 0 0 0 
11.1446 -0.000529371 8.0781e-06 3.19242e-06 -11.1446 0 0 2859.34 
0 0 0 0 0 0 0 0 
7.7732 -0.000369227 1.81353e-06 1.28787e-06 -7.7732 0 0 817 
38.7635 -9.69092e-05 0 0 -38.7635 0 0 3.52976e-11 
7.7889 -0.000379709 2.20584e-06 6.72142e-07 -7.7889 0 0 2485.4 
8.18323 -0.00357084 2.64891e-07 -1.20608e-05 -8.18323 0 0 1289.41 
7.04567 -0.00049116 -3.61574e-06 4.70052e-06 -7.04567 0 0 484.667 
11.4355 -0.00098345 -6.93376e-06 -1.36468e-06 -11.4355 0 0 2412.37 
11.3205 -0.000973563 -6.60977e-06 -5.2955e-06 -11.3205 0 0 1328.98 
9.25394 -0.000451129 -6.62428e-06 1.24392e-06 -9.25394 0 0 2424.49 
0 0 0 0 0 0 0 0 
6.13334 -0.000291334 0 0 -6.13334 0 0 0 
0 0 0 0 0 0 0 0 
4.56137 -0.000216665 8.39349e-07 3.09278e-07 -4.56137 0 0 1200.21 
0 0 0 0 0 0 0 0 
10.815 -0.000513712 8.20197e-07 -4.3152e-06 -10.815 0 0 2104.51 
19.1853 -4.79631e-05 0 0 -19.1853 0 0 0 
7.36019 -0.000349609 1.49011e-06 3.22763e-06 -7.36019 0 0 923.085 
0 0 0 0 0 0 0 0 
14.2193 -0.000675418 1.32398e-06 -7.17251e-06 -14.2193 0 0 1744.77 
0 0 0 0 0 0 0 0 
5.89367 -0.000279949 -1.25478e-06 2.93732e-06 -5.89367 0 0 1198.14 
0 0 0 0 0 0 0 0 
3.41573 -0.000166517 -4.00018e-08 3.77545e-06 -3.41573 0 0 890.216 
13.2986 -0.000648308 1.94992e-05 -6.50456e-06 -13.2986 0 0 1537.44 
10.0688 -0.00496321 1.14097e-05 -7.60692e-06 -10.0688 0 0 1944.54 
7.14847 -0.000614767 -2.63225e-06 -1.64995e-06 -7.14847 0 0 496.088 
5.77105 -0.000496311 1.02435e-06 -1.37734e-06 -5.77105 0 0 485.929 
7.20825 -9.47319e-05 1.23476e-06 -8.17298e-07 -7.20825 0 0 6484.49 
7.16356 -0.000349224 3.37351e-06 -1.46513e-06 -7.16356 0 0 1842.49 
0 0 0 0 0 0 0 0 
7.21542 -0.000342733 -7.25101e-06 -2.81993e-06 -7.21542 0 0 4223.79 
10.805 -2.70125e-05 -2.14407e-06 3.13146e-07 -10.805 0 0 17004 
6.5411 -0.000310702 -9.83106e-07 3.90901e-06 -6.5411 0 0 5604.49 
0 0 0 0 0 0 0 0 
5.99084 -0.000284565 1.08987e-06 -1.08947e-06 -5.99084 0 0 369.279 
0 0 0 0 0 0 0 0 
10.787 -0.000512385 0 0 -10.787 0 0 0 
18.5103 -4.62758e-05 0 0 -18.5103 0 0 1.48622e-11 
14.1014 -0.000669817 -9.92205e-06 -3.46504e-06 -14.1014 0 0 4520.47 
0 0 0 0 0 0 0 0 
8.69473 -0.000413 -9.20745e-07 -7.87532e-07 -8.69473 0 0 1851.02 
0 0 0 0 0 0 0 0 
3.74088 -0.000182368 -8.52688e-06 6.19824e-06 -3.74088 0 0 902.603 
8.49313 -0.00418651 2.18746e-07 1.35067e-06 -8.49313 0 0 1084.82 
0 0 0 0 0 0 0 0 
9.305 -0.000441987 1.25225e-06 -2.62836e-06 -9.305 0 0 954.122 
0 0 0 0 0 0 0 0 
10.8558 -0.000515651 -8.62662e-06 2.53165e-06 -10.8558 0 0 711.627 
18.1203 -4.53007e-05 0 0 -18.1203 0 0 1.48622e-11 
7.2297 -0.000343411 6.23448e-06 -4.15936e-07 -7.2297 0 0 2845.49 
0 0 0 0 0 0 0 0 
12.1762 -0.000578368 0 0 -12.1762 0 0 0 
19.9443 -4.98609e-05 0 0 -19.9443 0 0 0 
6.05174 -0.000287458 -1.05174e-06 -2.14513e-06 -6.05174 0 0 1170.13 
10.9181 -2.72952e-05 -2.98749e-06 -1.5365e-06 -10.9181 0 0 19916.3 
5.03484 -0.000239155 3.05326e-06 2.32616e-06 -5.03484 0 0 1657.75 
15.5963 -3.8991e-05 0 0 -15.5963 0 0 1.30044e-11 
8.35957 -0.000407529 3.07229e-06 -1.43496e-06 -8.35957 0 0 903.874 
0.0342096 -2.62065e-05 2.00126e-05 1.70938e-06 0 0.0342096 0 72.2917 
0.0688255 0 2.01315e-05 0 0 0.0688255 0 0 
0 0 0 0 0 0 0 0 
0 0 0 0 0 0 0 0 
0 0 0 0 0 0 0 0 
0 0 0 0 0 0 0 0 
0 0 0 0 0 0 0 0 
0 0 0 0 0 0 0 0 
0 0 0 0 0 0 0 0 
0 0 0 0 0 0 0 0 
0 0 0 0 0 0 0 0 
0 0 0 0 0 0 0 0 
0 0 0 0 0 0 0 0 
0 0 0 0 0 0 0 0 
0 0 0 0 0 0 0 0 
0 0 0 0 0 0 0 0 
0 0 0 0 0 0 0 0 
0 0 0 0 0 0 0 0 
0 0 0 0 0 0 0 0 
0 0 0 0 0 0 0 0 
0 0 0 0 0 0 0 0 
0 0 0 0 0 0 0 0 
0 0 0 0 0 0 0 0 
0 0 0 0 0 0 0 0 
0 0 0 0 0 0 0 0 
0 0 0 0 0 0 0 0 
0 0 0 0 0 0 0 0 
0 0 0 0 0 0 0 0 
10.7433 2.55155e-05 -8.02316e-07 -1.82165e-06 10.7433 0 0 15379.5 
0 0 0 0 0 0 0 0 
0 0 0 0 0 0 0 0 
0 0 0 0 0 0 0 0 
0 0 0 0 0 0 0 0 
0 0 0 0 0 0 0 0 
0 0 0 0 0 0 0 0 
0 0 0 0 0 0 0 0 
0 0 0 0 0 0 0 0 
0 0 0 0 0 0 0 0 
0 0 0 0 0 0 0 0 
0 0 0 0 0 0 0 0 
0 0 0 0 0 0 0 0 
0 0 0 0 0 0 0 0 
0 0 0 0 0 0 0 0 
0 0 0 0 0 0 0 0 
0 0 0 0 0 0 0 0 
0 0 0 0 0 0 0 0 
0 0 0 0 0 0 0 0 
0 0 0 0 0 0 0 0 
0 0 0 0 0 0 0 0 
0 0 0 0 0 0 0 0 
0 0 0 0 0 0 0 0 
0 0 0 0 0 0 0 0 
0 0 0 0 0 0 0 0 
0 0 0 0 0 0 0 0 
0 0 0 0 0 0 0 0 
0 0 0 0 0 0 0 0 
0 0 0 0 0 0 0 0 
0 0 0 0 0 0 0 0 
0 0 0 0 0 0 0 0 
0 0 0 0 0 0 0 0 
0 0 0 0 0 0 0 0 
0 0 0 0 0 0 0 0 
0 0 0 0 0 0 0 0 
0 0 0 0 0 0 0 0 
0 0 0 0 0 0 0 0 
0 0 0 0 0 0 0 0 
0 0 0 0 0 0 0 0 
0 0 0 0 0 0 0 0 
0 0 0 0 0 0 0 0 
0 0 0 0 0 0 0 0 
0 0 0 0 0 0 0 0 
0 0 0 0 0 0 0 0 
0 0 0 0 0 0 0 0 
0 0 0 0 0 0 0 0 
0 0 0 0 0 0 0 0 
0 0 0 0 0 0 0 0 
0 0 0 0 0 0 0 0 
0 0 0 0 0 0 0 0 
0 0 0 0 0 0 0 0 
0 0 0 0 0 0 0 0 
0 0 0 0 0 0 0 0 
0 0 0 0 0 0 0 0 
0 0 0 0 0 0 0 0 
0 0 0 0 0 0 0 0 
0 0 0 0 0 0 0 0 
0 0 0 0 0 0 0 0 
0 0 0 0 0 0 0 0 
0 0 0 0 0 0 0 0 
0 0 0 0 0 0 0 0 
0 0 0 0 0 0 0 0 
0 0 0 0 0 0 0 0 
0 0 0 0 0 0 0 0 
0 0 0 0 0 0 0 0 
0 0 0 0 0 0 0 0 
0 0 0 0 0 0 0 0 
0 0 0 0 0 0 0 0 
0 0 0 0 0 0 0 0 
0 0 0 0 0 0 0 0 
0 0 0 0 0 0 0 0 
0 0 0 0 0 0 0 0 
0 0 0 0 0 0 0 0 
0 0 0 0 0 0 0 0 
0 0 0 0 0 0 0 0 
0 0 0 0 0 0 0 0 
0 0 0 0 0 0 0 0 
0 0 0 0 0 0 0 0 
0 0 0 0 0 0 0 0 
0 0 0 0 0 0 0 0 
0 0 0 0 0 0 0 0 
0 0 0 0 0 0 0 0 
0 0 0 0 0 0 0 0 
0 0 0 0 0 0 0 0 
0 0 0 0 0 0 0 0 
0 0 0 0 0 0 0 0 
0 0 0 0 0 0 0 0 
0 0 0 0 0 0 0 0 
0 0 0 0 0 0 0 0 
0 0 0 0 0 0 0 0 
0 0 0 0 0 0 0 0 
0 0 0 0 0 0 0 0 
0 0 0 0 0 0 0 0 
0 0 0 0 0 0 0 0 
0 0 0 0 0 0 0 0 
0 0 0 0 0 0 0 0 
0 0 0 0 0 0 0 0 
0 0 0 0 0 0 0 0 
0 0 0 0 0 0 0 0 
0 0 0 0 0 0 0 0 
0 0 0 0 0 0 0 0 
0 0 0 0 0 0 0 0 
0 0 0 0 0 0 0 0 
0 0 0 0 0 0 0 0 
0 0 0 0 0 0 0 0 
0 0 0 0 0 0 0 0 
0 0 0 0 0 0 0 0 
0 0 0 0 0 0 0 0 
0 0 0 0 0 0 0 0 
19.7969 4.70177e-05 0 0 19.7969 0 0 0 
0 0 0 0 0 0 0 0 
0 0 0 0 0 0 0 0 
0 0 0 0 0 0 0 0 
0 0 0 0 0 0 0 0 
0 0 0 0 0 0 0 0 
0 0 0 0 0 0 0 0 
0 0 0 0 0 0 0 0 
0 0 0 0 0 0 0 0 
0 0 0 0 0 0 0 0 
0 0 0 0 0 0 0 0 
0 0 0 0 0 0 0 0 
0 0 0 0 0 0 0 0 
0 0 0 0 0 0 0 0 
0 0 0 0 0 0 0 0 
0 0 0 0 0 0 0 0 
0 0 0 0 0 0 0 0 
0 0 0 0 0 0 0 0 
0 0 0 0 0 0 0 0 
0 0 0 0 0 0 0 0 
0 0 0 0 0 0 0 0 
0 0 0 0 0 0 0 0 
0 0 0 0 0 0 0 0 
0 0 0 0 0 0 0 0 
0 0 0 0 0 0 0 0 
0 0 0 0 0 0 0 0 
0 0 0 0 0 0 0 0 
0 0 0 0 0 0 0 0 
0 0 0 0 0 0 0 0 
0 0 0 0 0 0 0 0 
0 0 0 0 0 0 0 0 
0 0 0 0 0 0 0 0 
0 0 0 0 0 0 0 0 
0 0 0 0 0 0 0 0 
0 0 0 0 0 0 0 0 
0 0 0 0 0 0 0 0 
0 0 0 0 0 0 0 0 
0 0 0 0 0 0 0 0 
0 0 0 0 0 0 0 0 
0 0 0 0 0 0 0 0 
0 0 0 0 0 0 0 0 
0 0 0 0 0 0 0 0 
0 0 0 0 0 0 0 0 
0 0 0 0 0 0 0 0 
0 0 0 0 0 0 0 0 
0 0 0 0 0 0 0 0 
0 0 0 0 0 0 0 0 
0 0 0 0 0 0 0 0 
0 0 0 0 0 0 0 0 
0 0 0 0 0 0 0 0 
0 0 0 0 0 0 0 0 
0 0 0 0 0 0 0 0 
0 0 0 0 0 0 0 0 
0 0 0 0 0 0 0 0 
0 0 0 0 0 0 0 0 
0 0 0 0 0 0 0 0 
0 0 0 0 0 0 0 0 
0 0 0 0 0 0 0 0 
0 0 0 0 0 0 0 0 
0 0 0 0 0 0 0 0 
0 0 0 0 0 0 0 0 
0 0 0 0 0 0 0 0 
0 0 0 0 0 0 0 0 
0 0 0 0 0 0 0 0 
0 0 0 0 0 0 0 0 
0 0 0 0 0 0 0 0 
0 0 0 0 0 0 0 0 
0 0 0 0 0 0 0 0 
0 0 0 0 0 0 0 0 
0 0 0 0 0 0 0 0 
0 0 0 0 0 0 0 0 
0 0 0 0 0 0 0 0 
0 0 0 0 0 0 0 0 
0 0 0 0 0 0 0 0 
0 0 0 0 0 0 0 0 
0 0 0 0 0 0 0 0 
0 0 0 0 0 0 0 0 
0 0 0 0 0 0 0 0 
0 0 0 0 0 0 0 0 
0 0 0 0 0 0 0 0 
0 0 0 0 0 0 0 0 
0 0 0 0 0 0 0 0 
0 0 0 0 0 0 0 0 
0 0 0 0 0 0 0 0 
0 0 0 0 0 0 0 0 
0 0 0 0 0 0 0 0 
0 0 0 0 0 0 0 0 
0 0 0 0 0 0 0 0 
0 0 0 0 0 0 0 0 
0 0 0 0 0 0 0 0 
0 0 0 0 0 0 0 0 
0 0 0 0 0 0 0 0 
0 0 0 0 0 0 0 0 
0 0 0 0 0 0 0 0 
0 0 0 0 0 0 0 0 
0 0 0 0 0 0 0 0 
0 0 0 0 0 0 0 0 
0 0 0 0 0 0 0 0 
0 0 0 0 0 0 0 0 
0 0 0 0 0 0 0 0 
0 0 0 0 0 0 0 0 
0 0 0 0 0 0 0 0 
0 0 0 0 0 0 0 0 
0 0 0 0 0 0 0 0 
0 0 0 0 0 0 0 0 
0 0 0 0 0 0 0 0 
0 0 0 0 0 0 0 0 
0 0 0 0 0 0 0 0 
0 0 0 0 0 0 0 0 
0 0 0 0 0 0 0 0 
0 0 0 0 0 0 0 0 
0 0 0 0 0 0 0 0 
0 0 0 0 0 0 0 0 
0 0 0 0 0 0 0 0 
0 0 0 0 0 0 0 0 
0 0 0 0 0 0 0 0 
0 0 0 0 0 0 0 0 
0 0 0 0 0 0 0 0 
0 0 0 0 0 0 0 0 
0 0 0 0 0 0 0 0 
0 0 0 0 0 0 0 0 
0 0 0 0 0 0 0 0 
0 0 0 0 0 0 0 0 
0 0 0 0 0 0 0 0 
3.74233 9.12194e-06 0 0 3.74233 0 0 0 
0 0 0 0 0 0 0 0 
0 0 0 0 0 0 0 0 
0 0 0 0 0 0 0 0 
0 0 0 0 0 0 0 0 
0 0 0 0 0 0 0 0 
0 0 0 0 0 0 0 0 
0 0 0 0 0 0 0 0 
0 0 0 0 0 0 0 0 
0 0 0 0 0 0 0 0 
0 0 0 0 0 0 0 0 
0 0 0 0 0 0 0 0 
0 0 0 0 0 0 0 0 
0 0 0 0 0 0 0 0 
0 0 0 0 0 0 0 0 
0 0 0 0 0 0 0 0 
0 0 0 0 0 0 0 0 
0 0 0 0 0 0 0 0 
0 0 0 0 0 0 0 0 
0 0 0 0 0 0 0 0 
0 0 0 0 0 0 0 0 
0 0 0 0 0 0 0 0 
0 0 0 0 0 0 0 0 
0 0 0 0 0 0 0 0 
0 0 0 0 0 0 0 0 
0 0 0 0 0 0 0 0 
0 0 0 0 0 0 0 0 
0 0 0 0 0 0 0 0 
0 0 0 0 0 0 0 0 
0 0 0 0 0 0 0 0 
0 0 0 0 0 0 0 0 
0 0 0 0 0 0 0 0 
0 0 0 0 0 0 0 0 
0 0 0 0 0 0 0 0 
0 0 0 0 0 0 0 0 
0 0 0 0 0 0 0 0 
0 0 0 0 0 0 0 0 
0 0 0 0 0 0 0 0 
0 0 0 0 0 0 0 0 
0 0 0 0 0 0 0 0 
0 0 0 0 0 0 0 0 
0 0 0 0 0 0 0 0 
0 0 0 0 0 0 0 0 
0 0 0 0 0 0 0 0 
0 0 0 0 0 0 0 0 
0 0 0 0 0 0 0 0 
0 0 0 0 0 0 0 0 
0 0 0 0 0 0 0 0 
0 0 0 0 0 0 0 0 
0 0 0 0 0 0 0 0 
0 0 0 0 0 0 0 0 
0 0 0 0 0 0 0 0 
0 0 0 0 0 0 0 0 
0 0 0 0 0 0 0 0 
0 0 0 0 0 0 0 0 
0 0 0 0 0 0 0 0 
0 0 0 0 0 0 0 0 
0 0 0 0 0 0 0 0 
0 0 0 0 0 0 0 0 
0 0 0 0 0 0 0 0 
0 0 0 0 0 0 0 0 
20.8993 5.09419e-05 0 0 20.8993 0 0 0 
0 0 0 0 0 0 0 0 
0 0 0 0 0 0 0 0 
0 0 0 0 0 0 0 0 
0 0 0 0 0 0 0 0 
0 0 0 0 0 0 0 0 
0 0 0 0 0 0 0 0 
0.0146997 0 -8.5993e-06 0 0 -0.0146997 0 0 
0.0178148 0 -1.04216e-05 0 0 -0.0178148 0 0 
2.31208 -0.000288792 0.000277148 -0.000279921 -1.15604 1.41585 -1.41585 487.934 
1.91071 -0.000254047 0.000222628 -0.000225179 -0.955355 1.17006 -1.17007 608.864 
0.0303045 -0.000395983 0.000269255 0.0002836 0 0.0214285 0.0214285 51.7037 
0.0189846 -0.000614692 0.000392499 0.000376706 4.5035e-10 0.0134242 0.0134242 37.758 
0.0195203 -0.000107762 8.03956e-05 9.08176e-05 0 0.0138029 0.0138029 30.8795 
0.0320731 -0.00031534 0.000474292 6.60336e-06 0 0.0320731 0 36.8123 
0.0200955 -0.000230614 0.000297169 -1.85572e-05 0 0.0200955 0 28.4294 
0.029589 -0.000206055 -7.96712e-06 0.000437558 0 0 0.029589 24.9128 
0.0161481 -0.000311827 1.42026e-05 0.000238796 0 0 0.0161481 38.6439 
0.0247159 -0.000743393 0.000514918 0.000486503 0 0.0174768 0.0174768 45.1691 
0.0200232 -0.000160111 0.000179438 0.000185852 -2.92309e-10 0.0141585 0.0141585 23.5243 
0.0198502 -0.000105174 8.4863e-05 8.92444e-05 0 0.0140362 0.0140362 31.0157 
2.08206 -0.000239226 -0.000258318 0.000260345 -1.04103 -1.275 1.275 243.162 
2.77299 -0.000355289 -0.000321507 0.000339335 -1.38649 -1.69809 1.69811 858.94 
0.0215496 -0.000647156 -0.000438172 -0.000434957 0 -0.0152379 -0.0152379 38.8916 
0.0210747 -0.000236129 -0.000199743 -0.00018473 1.11031e-09 -0.0149021 -0.0149021 30.1785 
0.0328628 -0.000153117 -0.000144648 -0.000143593 0 -0.0232375 -0.0232375 41.6989 
0.0290447 -0.00020366 -0.000429509 7.5424e-06 0 -0.0290447 0 25.0899 
0.0156738 -0.000298216 -0.000231782 -2.87635e-06 0 -0.0156738 0 33.6981 
0.0266163 -0.000238506 -8.76088e-06 -0.000393598 0 0 -0.0266163 30.0431 
0.0203318 -0.000246591 -4.33529e-06 -0.000300663 0 0 -0.0203318 32.8132 
0.0255881 -0.000209614 -0.000231407 -0.000235405 0 -0.0180935 -0.0180935 28.3216 
0.0178145 -0.000574333 -0.000358628 -0.000363167 -1.17098e-10 -0.0125968 -0.0125968 35.8182 
0.024347 -0.000128401 -0.000102635 -0.000110914 0 -0.0172159 -0.0172159 40.4189 
0.243862 -4.36334e-05 4.8797e-06 -0.000142659 0 0 -0.243862 210.958 
0.143405 -1.03697e-05 -6.18263e-07 -8.3892e-05 0 0 -0.143405 10.1094 
0.15005 -2.91412e-05 -8.55283e-05 -6.30736e-06 0 -0.15005 0 87.1343 
0.268652 -4.28548e-05 -0.000153131 -7.56899e-06 0 -0.268652 0 118.765 
0.27309 -3.83237e-05 -1.05275e-05 0.000159758 0 0 0.27309 109.517 
0.190621 -8.64663e-06 -5.74438e-07 0.000111513 0 0 0.190621 75.1162 
0.200991 -4.08897e-05 0.000114565 -4.08821e-06 0 0.200991 0 123.895 
0.172684 -4.73781e-05 9.84296e-05 -1.25403e-05 0 0.172684 0 135.781 
0.0118357 0 6.74637e-06 0 0 0.0118357 0 7.6389e-16 
0.0360088 -2.86309e-05 2.0525e-05 4.93369e-07 0 0.0360088 0 89.0531 
0.0400722 -1.97863e-05 -9.5824e-06 -2.28411e-05 0 0 -0.0400722 83.1491 
0.0490739 -1.7046e-05 -1.65215e-06 -2.79721e-05 0 0 -0.0490739 50.2326 
0.0185958 -3.76116e-06 -1.05996e-05 -5.53978e-07 0 -0.0185958 0 1.26321 
0.0159275 8.51272e-06 -9.07866e-06 -7.23078e-06 0 -0.0159275 0 -2.95036 
0.0463009 3.0761e-07 1.87251e-06 2.63915e-05 0 -9.07791e-09 0.0463009 -1.11926 
0.0386329 0 -4.31746e-12 2.20208e-05 0 -7.57449e-09 0.0386329 1.52778e-14 
0.060173 -2.17856e-05 3.42986e-05 1.45194e-06 0 0.060173 0 61.4835 
0.046315 -4.11691e-05 2.63995e-05 -2.85514e-06 0 0.046315 0 191.294 
0.0553298 -6.65606e-05 -1.27444e-07 -3.1538e-05 0 0 -0.0553298 208.206 
0.0308033 2.94612e-06 2.5722e-06 -1.75579e-05 0 0 -0.0308033 2.22352 
0.0712847 0 -4.06323e-05 0 0 -0.0712847 0 1.75695e-14 
0.0248851 -2.46657e-05 -1.41845e-05 -8.82717e-07 0 -0.0248851 0 77.0434 
0.0487098 -7.33388e-06 4.1072e-06 2.77646e-05 0 0 0.0487098 26.0221 
0.0272257 0 0 1.55187e-05 0 0 0.0272257 2.16436e-15 
0.0516464 7.98667e-07 -2.94384e-05 -4.49964e-06 0 -0.0516464 0 0.327498 
0.0964601 -4.12229e-05 -5.49823e-05 -6.44591e-07 0 -0.0964601 0 136.56 
0.135708 -2.66103e-05 3.13545e-07 7.73535e-05 0 0 0.135708 72.844 
0.0777999 -5.00446e-05 -1.886e-06 4.43459e-05 0 0 0.0777999 153.554 
0.078948 9.71713e-07 4.50003e-05 -1.5513e-07 0 0.078948 0 -2.60302 
0.0533771 8.96258e-07 3.04249e-05 1.47151e-06 0 0.0533771 0 -1.99255 
0.0568796 -8.14235e-06 5.90234e-06 -3.24214e-05 0 0 -0.0568796 53.8751 
0.142871 -2.81667e-05 -1.41212e-06 -8.14364e-05 0 0 -0.142871 78.3335 
0.157175 -4.72028e-05 8.95896e-05 -9.24024e-06 0 0.157175 0 173.054 
0.0760967 -1.93581e-05 4.33751e-05 2.17361e-07 0 0.0760967 0 50.1071 
0.0234202 -2.74253e-05 -7.07309e-07 -1.33495e-05 0 0 -0.0234202 69.0965 
0.0608047 0 0 -3.46587e-05 0 0 -0.0608047 3.05556e-15 
0.230305 -1.59969e-05 -0.000131274 -8.09388e-06 0 -0.230305 0 52.4028 
0.00493713 -2.32446e-05 -2.81416e-06 -1.429e-06 0 -0.00493713 0 66.9435 
0.059976 -1.25542e-05 8.73624e-06 3.41863e-05 0 0 0.059976 31.2774 
0.0833971 -2.31407e-05 -2.38606e-06 4.75363e-05 0 0 0.0833971 82.4004 
0.221002 -2.69025e-05 0.000125971 -3.49799e-06 0 0.221002 0 77.2163 
0.0167913 1.62802e-06 9.57103e-06 -1.52624e-06 0 0.0167913 0 0.181627 
0.103899 -3.01445e-05 1.9531e-05 -5.92226e-05 0 0 -0.103899 160.957 
0.0782058 -3.5946e-05 1.08665e-05 -4.45773e-05 0 0 -0.0782058 129.396 
0.217064 -9.29548e-06 -0.000123727 -2.67432e-05 0 -0.217064 0 104.265 
0.136732 0 -7.79374e-05 0 0 -0.136732 0 0 
0.219594 -3.14672e-05 -6.2751e-06 0.000125169 0 0 0.219594 96.1934 
0.0916699 3.05855e-06 4.26776e-06 5.22518e-05 0 0 0.0916699 1.21025 
0.124684 -1.16895e-05 4.39244e-06 -7.107e-05 0 0 -0.124684 25.8757 
0.0910245 0 0 -5.1884e-05 0 0 -0.0910245 3.17014e-14 
0.0670941 0 -3.82437e-05 0 0 -0.0670941 0 1.71875e-14 
0.0757561 -3.18568e-06 -4.3181e-05 -2.78554e-07 0 -0.0757561 0 -2.48549 
0.107883 -5.57096e-05 1.1683e-05 6.14934e-05 0 0 0.107883 173.359 
0.116515 -1.9191e-05 1.45138e-06 6.64137e-05 0 0 0.116515 55.3381 
0.0743473 0 4.2378e-05 0 0 0.0743473 0 2.52084e-14 
0.0498291 3.26794e-06 2.84026e-05 1.87217e-06 0 0.0498291 0 -0.803845 
0.119569 0 6.81546e-05 0 0 0.119569 0 4.36691e-14 
0.0919786 -5.27361e-05 5.24278e-05 -5.00325e-07 0 0.0919786 0 144.531 
0.0566693 -1.12094e-06 2.67287e-06 -3.23015e-05 0 0 -0.0566693 2.00348 
0.0955968 5.86972e-07 3.85552e-07 -5.44902e-05 0 0 -0.0955968 -0.554387 
0.106663 0 -6.07979e-05 0 0 -0.106663 0 2.85186e-14 
0.0857293 -5.33753e-05 -4.88657e-05 7.28788e-06 0 -0.0857293 0 155.447 
0.065665 0 0 3.7429e-05 0 0 0.065665 0 
0.0955531 -1.51603e-05 1.43388e-06 5.44652e-05 0 0 0.0955531 46.8212 
0.113716 -2.26752e-05 -1.45942e-06 -6.48182e-05 0 0 -0.113716 87.4721 
0.0664424 -2.77817e-05 1.77917e-06 -3.78722e-05 0 0 -0.0664424 90.7862 
0.158983 -5.71068e-06 -9.06201e-05 9.00499e-06 0 -0.158983 0 18.9828 
0.0409795 2.67295e-06 -2.33583e-05 1.05644e-06 0 -0.0409795 0 0.449383 
0.0847041 -3.12124e-06 -4.06876e-08 4.82813e-05 0 0 0.0847041 2.20511 
0.0790575 -5.05489e-05 2.5018e-06 4.50628e-05 0 0 0.0790575 147.697 
0.122297 -3.3254e-05 6.97093e-05 4.69563e-06 0 0.122297 2.39779e-08 85.8755 
0.046514 -1.14665e-06 2.6513e-05 6.36135e-07 0 0.046514 9.11969e-09 1.00619 
0.121126 -1.87196e-05 -3.17897e-06 -6.90417e-05 0 0 -0.121126 61.9116 
0.112759 -4.3969e-05 -2.26494e-07 -6.42725e-05 0 0 -0.112759 134.333 
0.0652273 -7.71078e-06 -3.71796e-05 -3.95674e-06 0 -0.0652273 -1.27894e-08 38.9167 
0.0418375 0 -2.38474e-05 -4.67585e-12 0 -0.0418375 -8.20324e-09 -1.27315e-16 
0.169997 0 0 9.68986e-05 0 0 0.169997 4.35417e-14 
0.0699246 -9.33689e-11 3.54363e-07 3.9857e-05 0 0 0.0699246 -0.385713 
0.099426 -2.96092e-05 5.66728e-05 5.0479e-06 0 0.099426 0 84.2859 
0.00573932 -5.60284e-07 3.27141e-06 7.83029e-07 0 0.00573932 0 1.036 
0.0408959 -3.30716e-05 -8.54992e-06 2.39241e-05 0 0 0.0408959 105.102 
0.0140554 0 0 8.22242e-06 0 0 0.0140554 0 
0.285598 -5.13057e-05 0.000162791 -1.35343e-06 0 0.285598 0 144.802 
0.0163432 -9.93169e-06 9.31563e-06 -5.15976e-06 0 0.0163432 0 25.5816 
0.0226881 -6.31148e-06 6.94797e-06 -1.32726e-05 0 0 -0.0226881 3.76976 
0.0198517 0 0 -1.16133e-05 0 0 -0.0198517 0 
0.0297216 -2.69759e-05 -1.69413e-05 1.8558e-06 0 -0.0297216 0 77.142 
0.266243 -2.03409e-05 -0.000151758 -1.32636e-07 0 -0.266243 0 61.1885 
0.0607991 -4.2326e-05 -2.16836e-06 3.55675e-05 0 0 0.0607991 131.5 
0.0273207 0 0 1.59826e-05 0 0 0.0273207 0 
0.0337611 0 1.92438e-05 0 0 0.0337611 0 0 
0.00811748 -2.39115e-05 4.62696e-06 -1.40388e-06 0 0.00811748 0 68.4138 
0.0354891 0 0 -2.07611e-05 0 0 -0.0354891 0 
0.0208371 0 0 -1.21897e-05 0 0 -0.0208371 0 
0.0227843 0 -1.29871e-05 0 0 -0.0227843 0 0 
0.0233953 7.03237e-07 -1.33353e-05 8.49152e-07 0 -0.0233953 0 2.39315 
0.0395902 0 0 -2.25664e-05 0 0 -0.0395902 0 
0.00642084 0 0 -3.65988e-06 0 0 -0.00642084 0 
0.100488 -2.61458e-05 -5.72781e-05 -1.47678e-05 0 -0.100488 0 93.4699 
0.0288201 0 -1.64275e-05 0 0 -0.0288201 0 0 
0.0391197 -2.30988e-05 1.64223e-06 2.22982e-05 0 0 0.0391197 69.735 
0.0159732 0 0 9.10475e-06 0 0 0.0159732 0 
0.021675 -8.65748e-07 1.23547e-05 -9.44939e-07 0 0.021675 0 0.725727 
0.0453757 -2.39576e-05 2.58642e-05 -3.54269e-06 0 0.0453757 0 84.2454 
0.00368305 0 0 2.15459e-06 0 0 0.00368305 0 
0.011098 -2.64917e-05 -1.48923e-06 6.49233e-06 0 0 0.011098 64.6414 
0.041786 0 2.44448e-05 0 0 0.041786 0 0 
0.0315055 1.08307e-06 1.84307e-05 6.78294e-08 0 0.0315055 0 -0.912302 
0.0205575 0 0 -1.20261e-05 0 0 -0.0205575 0 
0.00798589 0 0 -2.33587e-06 0 0 -0.00798589 0 
0.0157237 0 0 -4.59919e-06 0 0 -0.0157237 0 
0.0463052 -1.60448e-05 -2.70885e-05 1.22236e-06 0 -0.0463052 0 50.3914 
0.0138281 0 -4.04472e-06 0 0 -0.0138281 0 0 
0.0268436 0 -7.85176e-06 0 0 -0.0268436 0 0 
0.0888503 -7.57302e-05 5.62103e-06 5.19774e-05 0 0 0.0888503 232.774 
0.0366075 0 0 2.14154e-05 0 0 0.0366075 0 
0.0515274 -2.63807e-05 2.93706e-05 4.19982e-06 0 0.0515274 0 86.2963 
0.0213541 -1.71585e-06 1.21718e-05 -3.60633e-06 0 0.0213541 0 -0.450975 
0.111574 -3.6003e-08 8.28589e-07 -6.52708e-05 0 0 -0.111574 1.9224 
0.0302487 0 0 -1.76955e-05 0 0 -0.0302487 0 
0.0153121 0 -8.72788e-06 0 0 -0.0153121 0 0 
0.0528636 -3.26205e-05 -3.01323e-05 -3.07749e-07 0 -0.0528636 0 96.3603 
0.160774 -4.67769e-06 3.1486e-06 -9.16411e-05 0 0 -0.160774 13.895 
0.106326 -4.29707e-05 3.74098e-06 -6.06057e-05 0 0 -0.106326 129.962 
0.0986651 -2.29926e-05 -5.77191e-05 2.71299e-06 0 -0.0986651 0 72.4018 
0.0855452 -4.95618e-05 -5.00439e-05 3.3184e-07 0 -0.0855452 0 146.233 
0.0273111 -1.25292e-06 7.155e-07 1.55673e-05 0 0 0.0273111 -0.137736 
0.172245 -4.03683e-05 6.25723e-06 9.81798e-05 0 0 0.172245 111.042 
0.117337 -7.40218e-05 6.86423e-05 -1.53559e-06 0 0.117337 0 198.834 
0.0687175 5.3403e-06 4.01997e-05 4.64445e-06 0 0.0687175 0 8.48914 
0.0656839 -4.04996e-05 3.74398e-05 1.92687e-06 0 0.0656839 0 109.372 
0.126442 -2.7249e-05 7.20719e-05 -8.55116e-06 0 0.126442 0 94.6916 
0.0758178 0 0 -4.32161e-05 0 0 -0.0758178 0 
0.0455787 -1.52511e-05 -2.13561e-06 -2.59798e-05 0 0 -0.0455787 43.8847 
0.105651 -4.98237e-06 -6.02208e-05 -7.1534e-06 0 -0.105651 0 24.2468 
0.0639866 9.55136e-06 -3.64724e-05 -1.40856e-05 0 -0.0639866 0 38.5491 
0.027339 -2.64767e-06 5.89413e-06 1.55832e-05 0 0 0.027339 6.05277 
0.10771 0 0 6.13945e-05 0 0 0.10771 0 
0.0797212 -1.33837e-05 4.54411e-05 6.04978e-06 0 0.0797212 0 30.338 
0.0719705 -3.50616e-05 4.10232e-05 -9.75388e-06 0 0.0719705 0 93.0744 
0.0551653 -8.57204e-06 1.18186e-06 -3.14442e-05 0 0 -0.0551653 50.0558 
0.0321615 -1.23418e-06 -5.46622e-06 -1.83321e-05 0 0 -0.0321615 -1.23458 
0.0332698 0 -1.89638e-05 0 0 -0.0332698 0 5.0926e-15 
0.0847606 -2.58558e-05 -4.83136e-05 2.71215e-06 0 -0.0847606 0 81.4833 
0.0205225 0 0 1.16978e-05 0 0 0.0205225 0 
0.0328826 -2.07591e-05 7.54427e-07 1.87431e-05 0 0 0.0328826 65.2555 
0.0753071 -2.52483e-05 2.16138e-06 -4.2925e-05 0 0 -0.0753071 67.0467 
0.177855 -2.93648e-05 2.42794e-06 -0.000101377 0 0 -0.177855 98.439 
0.104646 3.38682e-06 -5.96481e-05 6.46962e-08 0 -0.104646 0 0.710614 
0.0472516 6.97596e-08 -2.69334e-05 -1.49735e-06 0 -0.0472516 0 1.84308 
0.0682878 0 0 3.8924e-05 0 0 0.0682878 7.6389e-15 
0.187194 -1.68755e-05 -3.37165e-06 0.000106701 0 0 0.187194 53.6951 
0.0721028 -3.40149e-05 4.10986e-05 4.3838e-06 0 0.0721028 0 109.555 