ITEM: TIMESTEP
170
ITEM: NUMBER OF SURFS
6916
ITEM: BOX BOUNDS oo rr rr
-20 20
-20 20
-20 20
ITEM: SURFS f_save[1] f_save[2] f_save[3] f_save[4] f_save[5] f_save[6] f_save[7] f_save[8] 
2.13956e-18 -1.60534e-19 0 0 -2.13956e-18 0 0 0 
1.4756e-19 0 0 -4.42832e-19 0 0 -1.4756e-19 0 
0 0 0 0 0 0 0 0 
1.42366e-18 -3.47017e-20 0 0 -1.42366e-18 0 0 1.31562e-30 
1.31571e-18 -1.64464e-21 0 0 -1.31571e-18 0 0 0 
1.22672e-18 -1.53341e-21 0 0 -1.22672e-18 0 0 0 
1.3993e-18 -1.74913e-21 0 0 -1.3993e-18 0 0 0 
1.38848e-18 -3.38441e-20 0 0 -1.38848e-18 0 0 1.28009e-30 
1.36162e-18 -3.23385e-20 0 0 -1.36162e-18 0 0 0 
1.46294e-18 -3.47448e-20 0 0 -1.46294e-18 0 0 0 
1.5157e-18 -3.59981e-20 0 0 -1.5157e-18 0 0 0 
1.47186e-18 -3.49566e-20 0 0 -1.47186e-18 0 0 0 
1.46949e-18 -3.58188e-20 0 0 -1.46949e-18 0 0 0 
1.48734e-18 -3.53244e-20 0 0 -1.48734e-18 0 0 0 
1.44239e-18 -3.42568e-20 0 0 -1.44239e-18 0 0 0 
1.40175e-18 -3.41677e-20 0 0 -1.40175e-18 0 0 0 
1.40133e-18 -3.41575e-20 0 0 -1.40133e-18 0 0 1.29151e-30 
1.41784e-18 -3.36738e-20 0 0 -1.41784e-18 0 0 1.31502e-30 
1.38344e-18 -3.28569e-20 0 0 -1.38344e-18 0 0 0 
1.36627e-18 -3.33028e-20 0 0 -1.36627e-18 0 0 1.26034e-30 
1.40646e-18 -3.34034e-20 0 0 -1.40646e-18 0 0 0 
1.45683e-18 -3.45996e-20 0 0 -1.45683e-18 0 0 0 
1.43638e-18 -3.50118e-20 0 0 -1.43638e-18 0 0 0 
1.47346e-18 -3.49948e-20 0 0 -1.47346e-18 0 0 0 
1.487e-18 -3.53162e-20 0 0 -1.487e-18 0 0 0 
1.43685e-18 -3.41251e-20 0 0 -1.43685e-18 0 0 0 
1.54397e-18 -1.92996e-21 0 0 -1.54397e-18 0 0 0 
1.42524e-18 -3.38495e-20 0 0 -1.42524e-18 0 0 0 
1.40648e-18 -3.34039e-20 0 0 -1.40648e-18 0 0 0 
1.48851e-18 -1.86064e-21 0 0 -1.48851e-18 0 0 0 
1.33449e-18 -3.1694e-20 0 0 -1.33449e-18 0 0 0 
1.41637e-18 -3.36387e-20 0 0 -1.41637e-18 0 0 0 
1.67851e-18 -2.09815e-21 0 0 -1.67851e-18 0 0 0 
1.46182e-18 -3.56317e-20 0 0 -1.46182e-18 0 0 1.34568e-30 
1.40394e-18 -3.33438e-20 0 0 -1.40394e-18 0 0 0 
1.49324e-18 -1.86655e-21 0 0 -1.49324e-18 0 0 0 
1.42948e-18 -3.48436e-20 0 0 -1.42948e-18 0 0 1.3155e-30 
1.413e-18 -3.35588e-20 0 0 -1.413e-18 0 0 0 
1.46688e-18 -1.83361e-21 0 0 -1.46688e-18 0 0 0 
1.36035e-18 -3.23085e-20 0 0 -1.36035e-18 0 0 0 
1.39302e-18 -3.3955e-20 0 0 -1.39302e-18 0 0 0 
1.81382e-18 -2.26729e-21 0 0 -1.81382e-18 0 0 0 
1.37474e-18 -3.26503e-20 0 0 -1.37474e-18 0 0 0 
1.4098e-18 -3.43638e-20 0 0 -1.4098e-18 0 0 0 
1.52939e-18 -1.91174e-21 0 0 -1.52939e-18 0 0 0 
1.46313e-18 -3.47494e-20 0 0 -1.46313e-18 0 0 0 
1.38231e-18 -3.28299e-20 0 0 -1.38231e-18 0 0 0 
1.71489e-18 -2.14361e-21 0 0 -1.71489e-18 0 0 0 
1.32401e-18 -1.65503e-21 0 0 -1.32401e-18 0 0 0 
1.43548e-18 -1.79435e-21 0 0 -1.43548e-18 0 0 0 
1.43999e-18 -3.41998e-20 0 0 -1.43999e-18 0 0 1.3291e-30 
1.42439e-18 -3.38294e-20 0 0 -1.42439e-18 0 0 0 
1.39165e-18 -3.30519e-20 0 0 -1.39165e-18 0 0 1.28357e-30 
1.45533e-18 -1.81916e-21 0 0 -1.45533e-18 0 0 0 
1.40727e-18 -3.34226e-20 0 0 -1.40727e-18 0 0 0 
1.50014e-18 -3.56283e-20 0 0 -1.50014e-18 0 0 0 
1.55347e-18 -3.68949e-20 0 0 -1.55347e-18 0 0 0 
1.52751e-18 -1.90939e-21 0 0 -1.52751e-18 0 0 0 
1.47739e-18 -3.50881e-20 0 0 -1.47739e-18 0 0 0 
1.48069e-18 -3.51663e-20 0 0 -1.48069e-18 0 0 0 
1.40319e-18 -3.33257e-20 0 0 -1.40319e-18 0 0 0 
1.81175e-18 -2.2647e-21 0 0 -1.81175e-18 0 0 0 
1.39649e-18 -3.31667e-20 0 0 -1.39649e-18 0 0 0 
1.32329e-18 -3.22551e-20 0 0 -1.32329e-18 0 0 1.22429e-30 
1.58417e-18 -1.98023e-21 0 0 -1.58417e-18 0 0 0 
1.3187e-18 -3.13191e-20 0 0 -1.3187e-18 0 0 0 
1.44057e-18 -3.42134e-20 0 0 -1.44057e-18 0 0 0 
1.50806e-18 -1.88509e-21 0 0 -1.50806e-18 0 0 0 
1.36628e-18 -3.24492e-20 0 0 -1.36628e-18 0 0 0 
1.40467e-18 -3.33609e-20 0 0 -1.40467e-18 0 0 0 
1.59895e-18 -1.99868e-21 0 0 -1.59895e-18 0 0 0 
1.44023e-18 -3.42054e-20 0 0 -1.44023e-18 0 0 0 
1.34317e-18 -3.19003e-20 0 0 -1.34317e-18 0 0 0 
1.46167e-18 -1.82709e-21 0 0 -1.46167e-18 0 0 0 
1.51141e-18 -1.88927e-21 0 0 -1.51141e-18 0 0 0 
1.44136e-18 -3.42324e-20 0 0 -1.44136e-18 0 0 0 
1.47229e-18 -3.4967e-20 0 0 -1.47229e-18 0 0 0 
1.47732e-18 -1.84665e-21 0 0 -1.47732e-18 0 0 0 
1.38125e-18 -3.28046e-20 0 0 -1.38125e-18 0 0 0 
1.36474e-18 -3.24125e-20 0 0 -1.36474e-18 0 0 0 
1.4787e-18 -3.51191e-20 0 0 -1.4787e-18 0 0 0 
1.43177e-18 -3.40045e-20 0 0 -1.43177e-18 0 0 0 
1.46885e-18 -3.48852e-20 0 0 -1.46885e-18 0 0 0 
1.44092e-18 -3.51224e-20 0 0 -1.44092e-18 0 0 0 
1.41217e-18 -3.53044e-20 0 0 -1.41217e-18 0 0 0 
1.42403e-18 -3.56006e-20 0 0 -1.42403e-18 0 0 0 
1.34286e-18 -3.35716e-20 0 0 -1.34286e-18 0 0 0 
1.36822e-18 -3.42056e-20 0 0 -1.36822e-18 0 0 0 
1.41874e-18 -1.22011e-18 0 0 -1.41874e-18 0 0 1.30917e-30 
1.42369e-18 -6.76251e-19 0 0 -1.42369e-18 0 0 1.31155e-30 
1.42006e-18 -6.74528e-19 0 0 -1.42006e-18 0 0 0 
1.41242e-18 -6.70902e-19 0 0 -1.41242e-18 0 0 0 
1.41008e-18 -6.87414e-19 0 0 -1.41008e-18 0 0 0 
1.42706e-18 -1.22728e-18 0 0 -1.42706e-18 0 0 1.31611e-30 
1.42861e-18 -6.7859e-19 0 0 -1.42861e-18 0 0 0 
1.41239e-18 -6.70883e-19 0 0 -1.41239e-18 0 0 0 
1.42827e-18 -6.78429e-19 0 0 -1.42827e-18 0 0 0 
1.41959e-18 -6.92048e-19 0 0 -1.41959e-18 0 0 0 
1.43543e-18 -3.58857e-20 0 0 -1.43543e-18 0 0 1.3211e-30 
1.35292e-18 -3.3823e-20 0 0 -1.35292e-18 0 0 0 
1.51177e-18 -3.77943e-20 0 0 -1.51177e-18 0 0 1.39038e-30 
3.39169e-21 0 0 -1.98414e-20 0 0 -3.39169e-21 0 
1.97953e-20 2.47441e-23 0 0 1.97953e-20 0 0 0 
1.96596e-20 4.66915e-22 0 0 1.96596e-20 0 0 0 
0 0 0 0 0 0 0 0 
2.12237e-20 5.04062e-22 0 0 2.12237e-20 0 0 0 
1.91561e-20 4.54957e-22 0 0 1.91561e-20 0 0 0 
1.05708e-20 2.51056e-22 0 0 1.05708e-20 0 0 0 
3.50428e-20 8.3227e-22 0 0 3.50428e-20 0 0 0 
7.24843e-21 1.7215e-22 0 0 7.24843e-21 0 0 0 
3.30241e-20 7.84322e-22 0 0 3.30241e-20 0 0 0 
4.28748e-20 5.22537e-22 0 0 4.28748e-20 0 0 0 
7.40818e-21 1.75945e-22 0 0 7.40818e-21 0 0 6.67812e-33 
1.19913e-20 2.84795e-22 0 0 1.19913e-20 0 0 0 
1.64314e-20 3.90246e-22 0 0 1.64314e-20 0 0 0 
4.52378e-20 1.0744e-21 0 0 4.52378e-20 0 0 0 
1.35004e-20 3.20634e-22 0 0 1.35004e-20 0 0 0 
2.15843e-20 5.12626e-22 0 0 2.15843e-20 0 0 0 
2.97588e-20 7.06773e-22 0 0 2.97588e-20 0 0 0 
2.3684e-20 2.9605e-23 0 0 2.3684e-20 0 0 0 
2.20002e-20 5.22505e-22 0 0 2.20002e-20 0 0 0 
1.36637e-20 3.24512e-22 0 0 1.36637e-20 0 0 0 
6.36836e-21 7.96044e-24 0 0 6.36836e-21 0 0 0 
1.40242e-20 3.33074e-22 0 0 1.40242e-20 0 0 0 
2.02616e-20 4.81213e-22 0 0 2.02616e-20 0 0 0 
2.0652e-20 2.58149e-23 0 0 2.0652e-20 0 0 0 
8.07323e-21 1.9174e-22 0 0 8.07323e-21 0 0 0 
1.00995e-20 2.39864e-22 0 0 1.00995e-20 0 0 0 
1.56093e-20 1.95116e-23 0 0 1.56093e-20 0 0 0 
7.83065e-21 9.78834e-24 0 0 7.83065e-21 0 0 0 
1.29692e-20 3.08017e-22 0 0 1.29692e-20 0 0 0 
8.94832e-21 2.12522e-22 0 0 8.94832e-21 0 0 0 
1.66569e-20 3.95602e-22 0 0 1.66569e-20 0 0 0 
1.47041e-20 3.49223e-22 0 0 1.47041e-20 0 0 0 
0 0 0 0 0 0 0 0 
9.7645e-21 2.31907e-22 0 0 9.7645e-21 0 0 0 
1.21215e-20 2.87886e-22 0 0 1.21215e-20 0 0 0 
0 0 0 0 0 0 0 0 
2.44125e-20 3.05157e-23 0 0 2.44125e-20 0 0 0 
1.6317e-20 3.87527e-22 0 0 1.6317e-20 0 0 0 
1.47599e-20 3.50546e-22 0 0 1.47599e-20 0 0 0 
1.51715e-20 3.60323e-22 0 0 1.51715e-20 0 0 0 
0 0 0 0 0 0 0 0 
1.162e-20 2.75976e-22 0 0 1.162e-20 0 0 0 
1.04306e-20 2.47728e-22 0 0 1.04306e-20 0 0 0 
5.33742e-20 6.67177e-23 0 0 5.33742e-20 0 0 0 
2.99422e-20 7.11127e-22 0 0 2.99422e-20 0 0 0 
2.2809e-20 5.41714e-22 0 0 2.2809e-20 0 0 0 
2.23753e-20 5.31414e-22 0 0 2.23753e-20 0 0 0 
0 0 0 0 0 0 0 0 
3.1602e-21 7.70301e-23 0 0 3.1602e-21 0 0 0 
2.80814e-20 3.51019e-23 0 0 2.80814e-20 0 0 0 
2.30624e-20 5.62145e-22 0 0 2.30624e-20 0 0 2.12637e-32 
3.02171e-20 7.17659e-22 0 0 3.02171e-20 0 0 0 
2.43175e-20 5.92738e-22 0 0 2.43175e-20 0 0 0 
3.2592e-20 7.9443e-22 0 0 3.2592e-20 0 0 3.14307e-32 
2.06191e-20 4.89706e-22 0 0 2.06191e-20 0 0 0 
0 0 0 0 0 0 0 0 
6.47909e-21 1.57928e-22 0 0 6.47909e-21 0 0 0 
0 0 0 0 0 0 0 0 
0 0 0 0 0 0 0 0 
0 0 0 0 0 0 0 0 
2.51316e-20 3.14146e-23 0 0 2.51316e-20 0 0 0 
0 0 0 0 0 0 0 0 
7.9659e-21 9.95745e-24 0 0 7.9659e-21 0 0 0 
1.77699e-20 4.33142e-22 0 0 1.77699e-20 0 0 0 
2.27044e-20 5.39231e-22 0 0 2.27044e-20 0 0 0 
2.25112e-20 2.8139e-23 0 0 2.25112e-20 0 0 0 
2.25963e-20 5.50785e-22 0 0 2.25963e-20 0 0 0 
1.81524e-20 4.31122e-22 0 0 1.81524e-20 0 0 0 
4.78671e-20 5.98341e-23 0 0 4.78671e-20 0 0 0 
2.0349e-20 4.96007e-22 0 0 2.0349e-20 0 0 0 
7.50316e-21 1.78201e-22 0 0 7.50316e-21 0 0 6.97625e-33 
6.79651e-21 1.65666e-22 0 0 6.79651e-21 0 0 0 
1.02362e-20 2.43111e-22 0 0 1.02362e-20 0 0 9.62961e-33 
1.49423e-20 3.54882e-22 0 0 1.49423e-20 0 0 0 
3.16525e-20 7.51751e-22 0 0 3.16525e-20 0 0 0 
3.10954e-20 7.38519e-22 0 0 3.10954e-20 0 0 0 
7.16206e-21 1.701e-22 0 0 7.16206e-21 0 0 0 
8.37071e-21 1.98805e-22 0 0 8.37071e-21 0 0 7.15513e-33 
2.32963e-20 5.67846e-22 0 0 2.32963e-20 0 0 2.11475e-32 
8.88026e-21 2.16457e-22 0 0 8.88026e-21 0 0 0 
1.02343e-19 6.39645e-23 0 0 1.02343e-19 0 0 0 
1.43519e-20 1.74914e-22 0 0 1.43519e-20 0 0 0 
3.32436e-19 -3.49056e-19 -4.27504e-19 -4.27504e-19 -1.66218e-19 -2.03575e-19 -2.03575e-19 -1.11385e-31 
3.20887e-21 0 0 -4.74523e-19 0 0 -3.20887e-21 0 
2.18112e-21 0 4.41864e-19 -4.41864e-19 0 1.54228e-21 -1.54228e-21 -1.12935e-34 
3.32381e-19 -3.48997e-19 4.27432e-19 4.27432e-19 -1.6619e-19 2.03541e-19 2.03541e-19 -1.12116e-31 
3.22787e-21 0 0 4.77333e-19 0 0 3.22787e-21 0 
2.80238e-21 0 -2.55624e-19 2.55624e-19 0 -1.98158e-21 1.98158e-21 1.78819e-34 
3.5849e-21 0 -2.09717e-20 0 0 -3.5849e-21 0 0 
3.52664e-21 0 2.06309e-20 0 0 3.52664e-21 0 0 
3.29704e-21 0 0 -1.87931e-20 0 0 -3.29704e-21 0 
3.37771e-21 0 0 1.92529e-20 0 0 3.37771e-21 0 
3.396e-21 0 0 -1.93572e-20 0 0 -3.396e-21 0 
3.40958e-21 0 0 1.94346e-20 0 0 3.40958e-21 0 
3.40861e-21 0 0 1.94291e-20 0 0 3.40861e-21 0 
3.3225e-21 0 0 -1.89382e-20 0 0 -3.3225e-21 0 
3.26999e-21 0 0 -1.86389e-20 0 0 -3.26999e-21 0 
3.21904e-21 0 0 1.83485e-20 0 0 3.21904e-21 0 
3.35617e-21 0 0 -1.91302e-20 0 0 -3.35617e-21 0 
3.35937e-21 0 0 1.91484e-20 0 0 3.35937e-21 0 
3.58174e-21 0 -2.04159e-20 0 0 -3.58174e-21 0 0 
3.41982e-21 0 1.9493e-20 0 0 3.41982e-21 0 0 
3.55235e-21 0 0 -2.02484e-20 0 0 -3.55235e-21 0 
3.69815e-21 0 0 2.10794e-20 0 0 3.69815e-21 0 
3.58431e-21 0 -2.04306e-20 0 0 -3.58431e-21 0 0 
3.61854e-21 0 2.06257e-20 0 0 3.61854e-21 0 0 
3.4692e-21 0 -1.97744e-20 0 0 -3.4692e-21 0 0 
3.53342e-21 0 2.01405e-20 0 0 3.53342e-21 0 0 
3.49588e-21 0 2.04509e-20 0 0 3.49588e-21 0 0 
3.4692e-21 0 -2.02948e-20 0 0 -3.4692e-21 0 0 
3.35386e-21 0 1.96201e-20 0 0 3.35386e-21 0 0 
3.34036e-21 0 -1.95411e-20 0 0 -3.34036e-21 0 0 
3.46723e-21 0 -1.97632e-20 0 0 -3.46723e-21 0 0 
3.36195e-21 0 1.91631e-20 0 0 3.36195e-21 0 0 
3.32206e-21 0 1.94341e-20 0 0 3.32206e-21 0 0 
3.36572e-21 0 -9.84472e-21 0 0 -3.36572e-21 0 0 
3.34398e-21 0 0 9.78113e-21 0 0 3.34398e-21 0 
3.97926e-21 0 0 -2.26818e-20 0 0 -3.97926e-21 0 
3.78824e-21 0 0 2.1593e-20 0 0 3.78824e-21 0 
3.47813e-21 0 0 2.0347e-20 0 0 3.47813e-21 0 
3.44785e-21 0 0 -2.01699e-20 0 0 -3.44785e-21 0 
3.54207e-21 0 -2.01898e-20 0 0 -3.54207e-21 0 0 
3.50425e-21 0 1.99742e-20 0 0 3.50425e-21 0 0 
3.7322e-21 0 -2.12735e-20 0 0 -3.7322e-21 0 0 
3.62526e-21 0 2.0664e-20 0 0 3.62526e-21 0 0 
3.56903e-21 0 0 2.03435e-20 0 0 3.56903e-21 0 
3.59194e-21 0 0 -2.04741e-20 0 0 -3.59194e-21 0 
3.7278e-21 0 -2.12485e-20 0 0 -3.7278e-21 0 0 
3.64413e-21 0 2.07715e-20 0 0 3.64413e-21 0 0 
3.59203e-21 0 0 2.04746e-20 0 0 3.59203e-21 0 
3.55418e-21 0 0 -2.02588e-20 0 0 -3.55418e-21 0 
3.45297e-21 0 -1.96819e-20 0 0 -3.45297e-21 0 0 
3.43059e-21 0 1.95543e-20 0 0 3.43059e-21 0 0 
3.65106e-21 0 0 2.0811e-20 0 0 3.65106e-21 0 
3.73904e-21 0 0 -2.13126e-20 0 0 -3.73904e-21 0 
3.65446e-21 0 2.08304e-20 0 0 3.65446e-21 0 0 
3.59559e-21 0 -2.04948e-20 0 0 -3.59559e-21 0 0 
3.38462e-21 0 1.92923e-20 0 0 3.38462e-21 0 0 
3.38009e-21 0 -1.92665e-20 0 0 -3.38009e-21 0 0 
3.60802e-21 0 0 -2.05657e-20 0 0 -3.60802e-21 0 
3.67941e-21 0 0 2.09727e-20 0 0 3.67941e-21 0 
3.60457e-21 0 0 2.0546e-20 0 0 3.60457e-21 0 
3.51133e-21 0 0 -2.00146e-20 0 0 -3.51133e-21 0 
3.86883e-21 0 0 2.20523e-20 0 0 3.86883e-21 0 
3.54284e-21 0 0 -2.01942e-20 0 0 -3.54284e-21 0 
3.68298e-21 0 -2.0993e-20 0 0 -3.68298e-21 0 0 
3.58471e-21 0 2.04328e-20 0 0 3.58471e-21 0 0 
3.58829e-21 0 -2.04532e-20 0 0 -3.58829e-21 0 0 
3.51909e-21 0 2.00588e-20 0 0 3.51909e-21 0 0 
3.38381e-21 0 1.97953e-20 0 0 3.38381e-21 0 0 
3.23979e-21 0 0 -1.89528e-20 0 0 -3.23979e-21 0 
3.41488e-21 0 -1.9977e-20 0 0 -3.41488e-21 0 0 
3.43905e-21 0 2.01185e-20 0 0 3.43905e-21 0 0 
3.56062e-21 0 2.08296e-20 0 0 3.56062e-21 0 0 
3.55547e-21 0 -2.07995e-20 0 0 -3.55547e-21 0 0 
3.45356e-21 0 0 -2.02034e-20 0 0 -3.45356e-21 0 
3.52037e-21 0 0 2.05942e-20 0 0 3.52037e-21 0 
3.33721e-21 0 0 1.95227e-20 0 0 3.33721e-21 0 
3.24655e-21 0 0 -1.89923e-20 0 0 -3.24655e-21 0 
3.59275e-21 0 -2.04787e-20 0 0 -3.59275e-21 0 0 
3.76341e-21 0 2.14515e-20 0 0 3.76341e-21 0 0 
3.45509e-21 0 0 -2.02122e-20 0 0 -3.45509e-21 0 
3.53922e-21 0 0 2.07044e-20 0 0 3.53922e-21 0 
3.30408e-21 0 -9.66444e-21 0 0 -3.30408e-21 0 0 
3.53995e-21 0 -2.07087e-20 0 0 -3.53995e-21 0 0 
3.54753e-21 0 2.07531e-20 0 0 3.54753e-21 0 0 
3.50499e-21 0 -2.05042e-20 0 0 -3.50499e-21 0 0 
3.45568e-21 0 2.02157e-20 0 0 3.45568e-21 0 0 
3.52959e-21 0 -2.01187e-20 0 0 -3.52959e-21 0 0 
3.60333e-21 0 2.0539e-20 0 0 3.60333e-21 0 0 
3.51054e-21 0 0 -2.05367e-20 0 0 -3.51054e-21 0 
3.49028e-21 0 0 2.04181e-20 0 0 3.49028e-21 0 
3.77398e-21 0 2.15117e-20 0 0 3.77398e-21 0 0 
3.69955e-21 0 -2.10874e-20 0 0 -3.69955e-21 0 0 
3.47846e-21 0 0 1.98272e-20 0 0 3.47846e-21 0 
3.45628e-21 0 0 -1.97008e-20 0 0 -3.45628e-21 0 
3.38098e-21 0 0 1.97787e-20 0 0 3.38098e-21 0 
3.35459e-21 0 9.81217e-21 0 0 3.35459e-21 0 0 
3.63121e-21 0 -2.06979e-20 0 0 -3.63121e-21 0 0 
3.57152e-21 0 2.03576e-20 0 0 3.57152e-21 0 0 
3.44506e-21 0 1.96368e-20 0 0 3.44506e-21 0 0 
3.47489e-21 0 -1.98068e-20 0 0 -3.47489e-21 0 0 
3.46599e-21 0 1.97562e-20 0 0 3.46599e-21 0 0 
3.53612e-21 0 -2.01559e-20 0 0 -3.53612e-21 0 0 
3.50404e-21 0 0 -1.99731e-20 0 0 -3.50404e-21 0 
3.48316e-21 0 0 1.9854e-20 0 0 3.48316e-21 0 
3.81382e-21 0 2.17388e-20 0 0 3.81382e-21 0 0 
3.69603e-21 0 -2.10674e-20 0 0 -3.69603e-21 0 0 
3.51731e-21 0 0 -2.00487e-20 0 0 -3.51731e-21 0 
3.45714e-21 0 0 1.97057e-20 0 0 3.45714e-21 0 
3.42667e-21 0 1.9532e-20 0 0 3.42667e-21 0 0 
3.4191e-21 0 -1.94889e-20 0 0 -3.4191e-21 0 0 
3.6346e-21 0 -2.07172e-20 0 0 -3.6346e-21 0 0 
3.4716e-21 0 1.97881e-20 0 0 3.4716e-21 0 0 
3.51167e-21 0 0 -2.00165e-20 0 0 -3.51167e-21 0 
3.4569e-21 0 0 1.97043e-20 0 0 3.4569e-21 0 
3.52487e-21 0 0 -2.00918e-20 0 0 -3.52487e-21 0 
3.59369e-21 0 0 2.0484e-20 0 0 3.59369e-21 0 
3.37079e-21 0 0 1.92135e-20 0 0 3.37079e-21 0 
3.39677e-21 0 0 -1.93616e-20 0 0 -3.39677e-21 0 
3.43838e-21 0 -1.95988e-20 0 0 -3.43838e-21 0 0 
3.42776e-21 0 1.95383e-20 0 0 3.42776e-21 0 0 
3.31461e-21 0 0 1.88933e-20 0 0 3.31461e-21 0 
3.40942e-21 0 0 -1.94337e-20 0 0 -3.40942e-21 0 
3.57425e-21 0 0 -2.03732e-20 0 0 -3.57425e-21 0 
3.64555e-21 0 0 2.07796e-20 0 0 3.64555e-21 0 
3.5774e-21 0 2.03912e-20 0 0 3.5774e-21 0 0 
3.52457e-21 0 -2.00901e-20 0 0 -3.52457e-21 0 0 
3.48996e-21 0 -1.98927e-20 0 0 -3.48996e-21 0 0 
3.50669e-21 0 1.99881e-20 0 0 3.50669e-21 0 0 
3.49738e-21 0 0 1.99351e-20 0 0 3.49738e-21 0 
3.47309e-21 0 0 -1.97966e-20 0 0 -3.47309e-21 0 
3.48721e-21 0 1.98771e-20 0 0 3.48721e-21 0 0 
3.60894e-21 0 -2.0571e-20 0 0 -3.60894e-21 0 0 
3.50383e-21 0 0 1.99718e-20 0 0 3.50383e-21 0 
3.51339e-21 0 0 -2.00263e-20 0 0 -3.51339e-21 0 
3.78044e-21 -5.12387e-24 0 -2.69357e-21 -7.19138e-24 0 -3.78044e-21 -5.66449e-35 
1.09751e-20 -1.34547e-22 -4.52091e-23 -2.02197e-21 -7.28517e-22 -2.44789e-22 -1.09481e-20 9.58468e-35 
6.85844e-21 -4.91579e-23 -2.16248e-23 -1.26845e-21 -2.65555e-22 -1.16819e-22 -6.8523e-21 3.71026e-34 
1.22257e-20 -1.50558e-22 -1.00723e-22 -2.21243e-21 -8.29196e-22 -5.54729e-22 -1.2185e-20 -1.16989e-33 
4.17151e-21 -4.96459e-25 -1.49182e-27 -1.04288e-21 -1.98584e-24 -5.9673e-27 -4.17151e-21 -1.31416e-33 
4.32793e-21 -6.13157e-24 -3.21546e-23 -1.03956e-21 -2.55146e-23 -1.33801e-22 -4.32579e-21 -2.00354e-34 
4.06058e-21 -7.17814e-24 -2.27127e-23 -6.54571e-22 -4.44996e-23 -1.40803e-22 -4.05789e-21 -6.1453e-35 
4.03992e-21 -1.31769e-23 -3.17777e-23 -7.29987e-22 -7.28431e-23 -1.75671e-22 -4.03544e-21 1.48741e-34 
7.32373e-21 -5.17232e-23 -2.30919e-23 -1.35451e-21 -2.79419e-22 -1.24747e-22 -7.31734e-21 8.22396e-34 
4.96819e-21 -2.77742e-23 -4.69954e-23 -8.93501e-22 -1.54147e-22 -2.60825e-22 -4.95894e-21 -1.175e-33 
7.23114e-21 -6.91111e-23 -5.28441e-23 -1.31411e-21 -3.79467e-22 -2.9015e-22 -7.21534e-21 4.12101e-34 
3.20771e-21 -4.99578e-24 -1.21508e-23 -1.04904e-21 -1.52748e-23 -3.71515e-23 -3.20746e-21 -4.76284e-34 
4.96919e-21 -1.4407e-23 -9.26547e-24 -8.19146e-22 -8.73784e-23 -5.61949e-23 -4.9681e-21 2.31897e-34 
4.89132e-21 -6.72353e-24 -2.32255e-23 -5.86077e-22 -5.6066e-23 -1.93672e-22 -4.88717e-21 -6.19959e-34 
3.02301e-21 -5.2454e-24 -8.53133e-24 -4.93688e-22 -3.21126e-23 -5.22292e-23 -3.02239e-21 -1.51718e-34 
5.37797e-21 -1.70576e-24 0 -1.00837e-22 -9.09605e-23 0 -5.3772e-21 7.55158e-34 
4.78188e-21 -1.54536e-23 2.50761e-23 -8.74904e-22 -8.44154e-23 1.36979e-22 -4.77918e-21 -9.20537e-34 
4.27798e-21 -1.56767e-23 0 -1.52403e-21 -4.40024e-23 0 -4.27776e-21 3.63701e-34 
4.64099e-21 -5.91543e-25 1.48929e-23 -1.11801e-21 -2.45534e-24 6.18166e-23 -4.64057e-21 2.99776e-34 
4.25686e-21 -6.03087e-24 3.16265e-23 -1.02248e-21 -2.50956e-23 1.31604e-22 -4.25475e-21 5.59812e-35 
8.16482e-21 -7.81265e-23 6.72666e-23 -1.47755e-21 -4.30674e-22 3.70808e-22 -8.14502e-21 2.81031e-34 
5.80758e-21 -4.10687e-23 2.12208e-23 -1.07216e-21 -2.2225e-22 1.1484e-22 -5.80219e-21 -2.91216e-34 
7.34201e-21 -6.35284e-23 8.04819e-23 -1.31307e-21 -3.5414e-22 4.48647e-22 -7.31973e-21 1.04203e-33 
4.64023e-21 -2.32061e-23 2.92619e-23 -8.4636e-22 -1.27105e-22 1.60275e-22 -4.63571e-21 -1.59007e-34 
4.68606e-21 -9.12144e-24 2.62114e-23 -7.55399e-22 -5.6546e-23 1.6249e-22 -4.6829e-21 5.35512e-34 
4.17e-21 -7.22342e-24 7.77531e-24 -6.87404e-22 -4.38143e-23 4.71618e-23 -4.1695e-21 -8.58963e-35 
5.39408e-21 -5.04209e-23 0 -1.92164e-21 -1.41484e-22 0 -5.39223e-21 1.15834e-33 
3.80734e-21 -1.29224e-24 0 -2.71273e-21 -1.81366e-24 0 -3.80734e-21 3.79621e-34 
3.97389e-21 -6.54422e-24 2.33424e-23 -9.6655e-22 -2.68975e-23 9.59401e-23 -3.97264e-21 4.36534e-34 
9.97788e-21 -1.18725e-22 0 -1.82408e-21 -6.48062e-22 0 -9.95681e-21 -8.03917e-34 
4.41713e-21 -5.98681e-24 3.14721e-21 0 -8.40253e-24 4.41712e-21 0 -2.94156e-34 
1.15288e-20 -1.41335e-22 2.12398e-21 -4.749e-23 -7.65273e-22 1.15005e-20 -2.57139e-22 2.79873e-34 
5.59088e-21 -4.00726e-23 1.03402e-21 -1.76282e-23 -2.16476e-22 5.58587e-21 -9.52289e-23 -6.15827e-34 
1.3428e-20 -1.65364e-22 2.43e-21 -1.10628e-22 -9.10738e-22 1.33832e-20 -6.0928e-22 -3.82165e-34 
3.27591e-21 -3.89872e-25 8.18977e-22 -1.17154e-27 -1.55949e-24 3.27591e-21 -4.68615e-27 2.80393e-34 
4.59886e-21 -6.5154e-24 1.10463e-21 -3.41674e-23 -2.71118e-23 4.59658e-21 -1.42177e-22 4.066e-34 
3.45283e-21 -6.10379e-24 5.56601e-22 -1.93133e-23 -3.78393e-23 3.45055e-21 -1.19729e-22 -1.44854e-34 
5.0102e-21 -1.63416e-23 9.0531e-22 -3.94099e-23 -9.03381e-23 5.00465e-21 -2.17862e-22 -4.26652e-34 
5.90079e-21 -4.16738e-23 1.09134e-21 -1.86053e-23 -2.2513e-22 5.89564e-21 -1.0051e-22 6.92342e-34 
6.62794e-21 -3.70528e-23 1.192e-21 -6.26953e-23 -2.05644e-22 6.6156e-21 -3.4796e-22 -1.11998e-33 
7.88219e-21 -7.53335e-23 1.43242e-21 -5.76019e-23 -4.13632e-22 7.86497e-21 -3.16273e-22 7.65885e-34 
3.17167e-21 -4.93965e-24 1.03725e-21 -1.20143e-23 -1.51031e-23 3.17142e-21 -3.67341e-23 2.40307e-34 
4.05888e-21 -1.17678e-23 6.69086e-22 -7.56812e-24 -7.13715e-23 4.05799e-21 -4.59005e-23 5.5827e-35 
4.49949e-21 -6.18493e-24 5.39128e-22 -2.1365e-23 -5.15747e-23 4.49567e-21 -1.78158e-22 -8.56134e-34 
3.53146e-21 -6.12764e-24 5.76723e-22 -9.96624e-24 -3.75137e-23 3.53073e-21 -6.10138e-23 7.02237e-34 
2.64313e-21 -8.38335e-25 4.95589e-23 0 -4.47048e-23 2.64276e-21 0 2.26547e-34 
4.33309e-21 -1.40032e-23 7.92791e-22 2.27227e-23 -7.64927e-23 4.33063e-21 1.24123e-22 -1.89522e-34 
4.24859e-21 -1.5569e-23 1.51356e-21 0 -4.37001e-23 4.24837e-21 0 2.46442e-34 
4.1378e-21 -5.27406e-25 9.96793e-22 1.32782e-23 -2.18913e-24 4.13743e-21 5.51142e-23 2.26302e-34 
4.59433e-21 -6.50898e-24 1.10354e-21 3.41338e-23 -2.70851e-23 4.59206e-21 1.42037e-22 -8.5445e-34 
8.06362e-21 -7.71581e-23 1.45924e-21 6.64328e-23 -4.25335e-22 8.04406e-21 3.66212e-22 2.53708e-34 
5.10433e-21 -3.60956e-23 9.42334e-22 1.86511e-23 -1.95337e-22 5.09959e-21 1.00933e-22 1.50973e-33 
7.64117e-21 -6.6117e-23 1.36658e-21 8.37613e-23 -3.6857e-22 7.61798e-21 4.66928e-22 3.15768e-34 
6.05909e-21 -3.03019e-23 1.10515e-21 3.82095e-23 -1.65971e-22 6.0532e-21 2.09282e-22 -4.1497e-34 
5.32259e-21 -1.03605e-23 8.5801e-22 2.97718e-23 -6.42269e-23 5.319e-21 1.84562e-22 7.85711e-34 
4.59369e-21 -7.95735e-24 7.57246e-22 8.56531e-24 -4.8266e-23 4.59314e-21 5.19536e-23 -7.73066e-35 
5.86953e-21 -5.48651e-23 2.09102e-21 0 -1.53954e-22 5.86751e-21 0 1.00734e-33 
3.88051e-21 -1.31707e-24 2.76486e-21 0 -1.84852e-24 3.88051e-21 0 3.2397e-34 
4.19931e-21 -6.91546e-24 1.02138e-21 2.46665e-23 -2.84234e-23 4.19799e-21 1.01383e-22 -2.24087e-34 
1.10304e-20 -1.31248e-22 2.0165e-21 0 -7.16424e-22 1.10071e-20 0 -8.34837e-34 
3.97565e-21 -5.38844e-24 0 2.83265e-21 -7.56271e-24 0 3.97564e-21 -2.81237e-34 
1.0073e-20 -1.23488e-22 4.1493e-23 1.85577e-21 -6.68636e-22 2.24668e-22 1.00482e-20 -6.82429e-34 
6.82684e-21 -4.89314e-23 2.15252e-23 1.26261e-21 -2.64332e-22 1.16281e-22 6.82073e-21 -3.06001e-34 
1.28882e-20 -1.58716e-22 1.0618e-22 2.33232e-21 -8.74127e-22 5.84788e-22 1.28452e-20 7.79929e-35 
3.75361e-21 -4.46725e-25 1.34238e-27 9.38403e-22 -1.7869e-24 5.3695e-27 3.75361e-21 3.31373e-34 
4.90491e-21 -6.94899e-24 3.64412e-23 1.17814e-21 -2.8916e-23 1.51639e-22 4.90248e-21 1.94461e-34 
3.3689e-21 -5.95543e-24 1.88439e-23 5.43072e-22 -3.69196e-23 1.16819e-22 3.36668e-21 -2.72149e-34 
4.12467e-21 -1.34533e-23 3.24444e-23 7.453e-22 -7.43712e-23 1.79356e-22 4.12009e-21 -2.54426e-34 
6.85306e-21 -4.8399e-23 2.16079e-23 1.26746e-21 -2.61461e-22 1.1673e-22 6.84707e-21 6.92342e-34 
4.92794e-21 -2.75492e-23 4.66147e-23 8.86263e-22 -1.52899e-22 2.58712e-22 4.91877e-21 -1.03353e-33 
7.57927e-21 -7.24384e-23 5.53883e-23 1.37737e-21 -3.97736e-22 3.04119e-22 7.56272e-21 -5.71498e-34 
4.01908e-21 -6.25942e-24 1.52243e-23 1.31438e-21 -1.91384e-23 4.65487e-23 4.01877e-21 1.84019e-34 
4.41195e-21 -1.27914e-23 8.22645e-24 7.27288e-22 -7.75799e-23 4.98933e-23 4.41099e-21 1.97542e-34 
5.97594e-21 -8.21442e-24 2.83756e-23 7.16036e-22 -6.84982e-23 2.36618e-22 5.97086e-21 -8.02994e-34 
4.6863e-21 -8.13147e-24 1.32253e-23 7.65321e-22 -4.97813e-23 8.09663e-23 4.68533e-21 1.12705e-33 
3.16372e-21 -1.00345e-24 0 5.93198e-23 -5.35096e-23 0 3.16326e-21 -8.30673e-34 
4.05889e-21 -1.31171e-23 -2.12848e-23 7.42624e-22 -7.16523e-23 -1.16268e-22 4.05659e-21 -4.91211e-34 
4.15073e-21 -1.52104e-23 0 1.4787e-21 -4.26936e-23 0 4.15051e-21 9.73845e-35 
4.71451e-21 -6.00914e-25 -1.51288e-23 1.13572e-21 -2.49424e-24 -6.27959e-23 4.71409e-21 3.40922e-34 
3.69204e-21 -5.23066e-24 -2.74301e-23 8.86816e-22 -2.17658e-23 -1.14142e-22 3.69021e-21 -4.62582e-34 
8.63538e-21 -8.26292e-23 -7.11433e-23 1.56271e-21 -4.55495e-22 -3.92179e-22 8.61444e-21 6.24513e-35 
5.93192e-21 -4.19479e-23 -2.16751e-23 1.09512e-21 -2.27008e-22 -1.17298e-22 5.92642e-21 -5.28788e-34 
7.47611e-21 -6.46888e-23 -8.19519e-23 1.33706e-21 -3.60608e-22 -4.56842e-22 7.45343e-21 1.67752e-33 
4.69646e-21 -2.34873e-23 -2.96165e-23 8.56617e-22 -1.28646e-22 -1.62217e-22 4.69189e-21 -9.69557e-34 
4.65398e-21 -9.05899e-24 -2.60319e-23 7.50228e-22 -5.61588e-23 -1.61378e-22 4.65084e-21 5.35512e-34 
3.94129e-21 -6.82723e-24 -7.34885e-24 6.49701e-22 -4.14112e-23 -4.45751e-23 3.94082e-21 -1.88972e-34 
5.40035e-21 -5.04795e-23 0 1.92388e-21 -1.41648e-22 0 5.3985e-21 1.63717e-33 
4.11803e-21 -1.39769e-24 0 2.93409e-21 -1.96166e-24 0 4.11803e-21 1.88817e-34 
3.90916e-21 -6.43763e-24 -2.29622e-23 9.50807e-22 -2.64595e-23 -9.43775e-23 3.90793e-21 1.74613e-34 
1.02245e-20 -1.21658e-22 0 1.86916e-21 -6.64077e-22 0 1.02029e-20 -4.25148e-34 
4.2333e-21 -5.73765e-24 -3.01622e-21 0 -8.05283e-24 -4.23329e-21 0 -9.44082e-35 
1.11431e-20 -1.36607e-22 -2.05293e-21 4.59013e-23 -7.39672e-22 -1.11158e-20 2.48537e-22 5.9425e-34 
5.1027e-21 -3.65736e-23 -9.43734e-22 1.60889e-23 -1.97574e-22 -5.09813e-21 8.69138e-23 2.33326e-34 
1.38196e-20 -1.70186e-22 -2.50087e-21 1.13854e-22 -9.37299e-22 -1.37735e-20 6.27049e-22 -7.01936e-34 
3.08353e-21 -3.66977e-25 -7.70882e-22 1.10274e-27 -1.46791e-24 -3.08353e-21 4.41096e-27 1.27451e-34 
3.71542e-21 -5.2638e-24 -8.92433e-22 2.76039e-23 -2.19036e-23 -3.71358e-21 1.14865e-22 2.59281e-34 
3.81676e-21 -6.74713e-24 -6.15267e-22 2.1349e-23 -4.18276e-23 -3.81424e-21 1.32349e-22 -2.41423e-34 
5.31119e-21 -1.73233e-23 -9.59697e-22 4.17775e-23 -9.57652e-23 -5.3053e-21 2.3095e-22 4.30567e-35 
6.48247e-21 -4.57818e-23 -1.19892e-21 2.04394e-23 -2.47322e-22 -6.47681e-21 1.10418e-22 4.51361e-34 
7.13464e-21 -3.98855e-23 -1.28312e-21 6.74884e-23 -2.21365e-22 -7.12136e-21 3.74562e-22 -1.76839e-33 
7.36398e-21 -7.03808e-23 -1.33825e-21 5.38149e-23 -3.86438e-22 -7.3479e-21 2.9548e-22 -1.94387e-35 
3.57193e-21 -5.56302e-24 -1.16815e-21 1.35305e-23 -1.70091e-23 -3.57165e-21 4.13699e-23 -2.64121e-34 
4.45043e-21 -1.2903e-23 -7.33631e-22 8.29819e-24 -7.82565e-23 -4.44946e-21 5.03284e-23 6.44158e-34 
5.50019e-21 -7.56047e-24 -6.59032e-22 2.61167e-23 -6.30451e-23 -5.49552e-21 2.17781e-22 -8.56134e-34 
3.57575e-21 -6.20449e-24 -5.83957e-22 1.00912e-23 -3.79842e-23 -3.57502e-21 6.17791e-23 -3.90132e-35 
4.23719e-22 -1.34393e-25 -7.94474e-24 0 -7.16658e-24 -4.23658e-22 0 4.53095e-34 
4.31467e-21 -1.39437e-23 -7.89423e-22 -2.26261e-23 -7.61677e-23 -4.31223e-21 -1.23595e-22 -6.11113e-34 
3.90519e-21 -1.43106e-23 -1.39122e-21 0 -4.0168e-23 -3.90498e-21 0 1.90794e-34 
4.36826e-21 -5.5678e-25 -1.05231e-21 -1.40177e-23 -2.31105e-24 -4.36787e-21 -5.81839e-23 2.49814e-34 
3.75902e-21 -5.32556e-24 -9.02905e-22 -2.79278e-23 -2.21607e-23 -3.75716e-21 -1.16213e-22 -3.32941e-34 
9.47152e-21 -9.06299e-23 -1.71402e-21 -7.80319e-23 -4.99599e-22 -9.44855e-21 -4.30152e-22 6.67448e-34 
5.73873e-21 -4.05818e-23 -1.05945e-21 -2.09692e-23 -2.19615e-22 -5.7334e-21 -1.13478e-22 1.02309e-33 
6.92133e-21 -5.98884e-23 -1.23784e-21 -7.58705e-23 -3.33848e-22 -6.90033e-21 -4.22941e-22 6.43377e-34 
6.02053e-21 -3.01091e-23 -1.09812e-21 -3.79663e-23 -1.64915e-22 -6.01468e-21 -2.07951e-22 -3.02502e-34 
4.57625e-21 -8.9077e-24 -7.37698e-22 -2.55972e-23 -5.52209e-23 -4.57316e-21 -1.58683e-22 1.00079e-33 
4.26306e-21 -7.38462e-24 -7.02743e-22 -7.94882e-24 -4.4792e-23 -4.26255e-21 -4.82143e-23 -5.02493e-34 
5.57704e-21 -5.2131e-23 -1.98682e-21 0 -1.46282e-22 -5.57512e-21 0 1.12059e-33 
4.15763e-21 -1.41113e-24 -2.96231e-21 0 -1.98053e-24 -4.15763e-21 0 1.5006e-34 
3.64183e-21 -5.99739e-24 -8.85785e-22 -2.13919e-23 -2.465e-23 -3.64068e-21 -8.79234e-23 -6.69351e-35 
1.04447e-20 -1.24279e-22 -1.90941e-21 0 -6.78379e-22 -1.04226e-20 0 -5.41098e-34 
3.06375e-20 0 -2.55925e-20 -2.55925e-20 0 -2.1664e-20 -2.1664e-20 1.54668e-32 
0 0 0 0 0 0 0 0 
0 0 0 0 0 0 0 0 
0 0 0 0 0 0 0 0 
0 0 0 0 0 0 0 0 
0 0 0 0 0 0 0 0 
0 0 0 0 0 0 0 0 
0 0 0 0 0 0 0 0 
0 0 0 0 0 0 0 0 
0 0 0 0 0 0 0 0 
0 0 0 0 0 0 0 0 
0 0 0 0 0 0 0 0 
0 0 0 0 0 0 0 0 
0 0 0 0 0 0 0 0 
0 0 0 0 0 0 0 0 
0 0 0 0 0 0 0 0 
0 0 0 0 0 0 0 0 
0 0 0 0 0 0 0 0 
0 0 0 0 0 0 0 0 
0 0 0 0 0 0 0 0 
0 0 0 0 0 0 0 0 
0 0 0 0 0 0 0 0 
0 0 0 0 0 0 0 0 
0 0 0 0 0 0 0 0 
0 0 0 0 0 0 0 0 
0 0 0 0 0 0 0 0 
0 0 0 0 0 0 0 0 
0 0 0 0 0 0 0 0 
0 0 0 0 0 0 0 0 
0 0 0 0 0 0 0 0 
0 0 0 0 0 0 0 0 
0 0 0 0 0 0 0 0 
0 0 0 0 0 0 0 0 
0 0 0 0 0 0 0 0 
0 0 0 0 0 0 0 0 
0 0 0 0 0 0 0 0 
0 0 0 0 0 0 0 0 
0 0 0 0 0 0 0 0 
0 0 0 0 0 0 0 0 
0 0 0 0 0 0 0 0 
0 0 0 0 0 0 0 0 
0 0 0 0 0 0 0 0 
0 0 0 0 0 0 0 0 
0 0 0 0 0 0 0 0 
0 0 0 0 0 0 0 0 
0 0 0 0 0 0 0 0 
0 0 0 0 0 0 0 0 
3.0689e-20 0 2.56355e-20 2.56355e-20 0 2.17004e-20 2.17004e-20 1.55471e-32 
4.18342e-20 -1.71189e-21 -2.59428e-22 -9.66085e-21 -7.2967e-21 -1.10578e-21 -4.11781e-20 -2.04954e-32 
4.6575e-20 -2.82884e-21 -1.03298e-21 -1.56869e-20 -8.2483e-21 -3.01195e-21 -4.57398e-20 -1.31182e-32 
3.56978e-20 -1.30634e-21 -2.29734e-22 -7.30606e-21 -6.28022e-21 -1.10444e-21 -3.51237e-20 -1.57265e-33 
7.22519e-20 -2.17022e-21 -1.73168e-21 -8.57976e-21 -1.73881e-20 -1.38745e-20 -6.87422e-20 -5.62204e-33 
8.99219e-20 -1.49068e-21 -8.81452e-22 -5.99448e-21 -2.14829e-20 -1.2703e-20 -8.6389e-20 -4.59188e-33 
8.62423e-20 -1.5165e-21 -6.00435e-22 -6.23355e-21 -2.02977e-20 -8.03658e-21 -8.34335e-20 5.91373e-33 
5.44198e-20 -8.91219e-22 -3.26061e-22 -4.01915e-21 -1.17443e-20 -4.29675e-21 -5.29634e-20 6.5408e-33 
3.52982e-20 -1.1085e-21 -3.10287e-22 -6.089e-21 -6.31415e-21 -1.76744e-21 -3.46838e-20 6.97749e-34 
3.90295e-20 -1.3595e-21 -3.63947e-22 -7.32239e-21 -7.11612e-21 -1.90503e-21 -3.8328e-20 -4.19177e-33 
3.96185e-20 -1.27342e-21 -5.61683e-22 -6.76948e-21 -7.30003e-21 -3.21991e-21 -3.88068e-20 1.29078e-33 
4.28283e-20 -1.428e-21 -7.21069e-22 -7.29027e-21 -8.19414e-21 -4.13764e-21 -4.1833e-20 -8.126e-36 
1.15216e-19 -2.66804e-21 -2.35197e-21 -1.32582e-20 -2.2394e-20 -1.97411e-20 -1.11281e-19 3.68589e-32 
4.09408e-20 -1.53658e-21 -8.88158e-22 -7.67957e-21 -7.98135e-21 -4.61328e-21 -3.98894e-20 -3.12615e-33 
4.68349e-20 -1.0201e-21 -3.56088e-22 -5.02298e-21 -9.29885e-21 -3.24596e-21 -4.57876e-20 1.07337e-32 
4.4728e-20 -1.23757e-21 -6.67657e-22 -5.8314e-21 -9.22787e-21 -4.97836e-21 -4.34817e-20 2.69262e-34 
6.81386e-20 -1.14516e-21 -5.42943e-22 -4.67614e-21 -1.61057e-20 -7.63605e-21 -6.5766e-20 -1.64213e-32 
5.22404e-20 -8.13079e-22 -3.5751e-22 -3.64844e-21 -1.13117e-20 -4.97375e-21 -5.07579e-20 -1.28847e-32 
5.17165e-20 -1.59194e-21 -7.08239e-22 -7.22769e-21 -1.10736e-20 -4.92655e-21 -5.02762e-20 1.18208e-34 
5.2836e-20 -1.44073e-21 -9.79201e-22 -6.50206e-21 -1.13086e-20 -7.68596e-21 -5.10361e-20 3.00674e-33 
7.38323e-20 -1.71745e-21 -1.64198e-21 -7.90853e-21 -1.53557e-20 -1.46809e-20 -7.07098e-20 1.59788e-32 