ITEM: TIMESTEP
105
ITEM: NUMBER OF SURFS
6916
ITEM: BOX BOUNDS oo rr rr
-20 20
-20 20
-20 20
ITEM: SURFS f_save[1] f_save[2] f_save[3] f_save[4] f_save[5] f_save[6] f_save[7] f_save[8] 
9.53461e-19 -7.15394e-20 0 0 -9.53461e-19 0 0 0 
3.12229e-20 0 0 -9.37008e-20 0 0 -3.12229e-20 0 
0 0 0 0 0 0 0 0 
1.3574e-18 -3.30866e-20 0 0 -1.3574e-18 0 0 1.25846e-30 
1.32254e-18 -1.65317e-21 0 0 -1.32254e-18 0 0 0 
1.24701e-18 -1.55877e-21 0 0 -1.24701e-18 0 0 0 
1.09517e-18 -1.36896e-21 0 0 -1.09517e-18 0 0 0 
1.31253e-18 -3.19929e-20 0 0 -1.31253e-18 0 0 1.20565e-30 
1.25591e-18 -2.98278e-20 0 0 -1.25591e-18 0 0 0 
1.36284e-18 -3.23674e-20 0 0 -1.36284e-18 0 0 0 
1.39758e-18 -3.31926e-20 0 0 -1.39758e-18 0 0 0 
1.40576e-18 -3.33868e-20 0 0 -1.40576e-18 0 0 0 
1.42229e-18 -3.46682e-20 0 0 -1.42229e-18 0 0 0 
1.36618e-18 -3.24467e-20 0 0 -1.36618e-18 0 0 0 
1.33127e-18 -3.16176e-20 0 0 -1.33127e-18 0 0 0 
1.32601e-18 -3.23217e-20 0 0 -1.32601e-18 0 0 0 
1.33448e-18 -3.25278e-20 0 0 -1.33448e-18 0 0 1.23133e-30 
1.38257e-18 -3.28362e-20 0 0 -1.38257e-18 0 0 1.27753e-30 
1.37531e-18 -3.26636e-20 0 0 -1.37531e-18 0 0 0 
1.37133e-18 -3.34261e-20 0 0 -1.37133e-18 0 0 1.26881e-30 
1.34035e-18 -3.18333e-20 0 0 -1.34035e-18 0 0 0 
1.3129e-18 -3.11813e-20 0 0 -1.3129e-18 0 0 0 
1.36202e-18 -3.31992e-20 0 0 -1.36202e-18 0 0 0 
1.34957e-18 -3.20524e-20 0 0 -1.34957e-18 0 0 0 
1.41949e-18 -3.3713e-20 0 0 -1.41949e-18 0 0 0 
1.35111e-18 -3.20888e-20 0 0 -1.35111e-18 0 0 0 
1.30884e-18 -1.63605e-21 0 0 -1.30884e-18 0 0 0 
1.28509e-18 -3.0521e-20 0 0 -1.28509e-18 0 0 0 
1.34239e-18 -3.18818e-20 0 0 -1.34239e-18 0 0 0 
1.28218e-18 -1.60273e-21 0 0 -1.28218e-18 0 0 0 
1.22905e-18 -2.91899e-20 0 0 -1.22905e-18 0 0 0 
1.36861e-18 -3.25044e-20 0 0 -1.36861e-18 0 0 0 
1.90914e-18 -2.38644e-21 0 0 -1.90914e-18 0 0 0 
1.33275e-18 -3.24858e-20 0 0 -1.33275e-18 0 0 1.22535e-30 
1.39168e-18 -3.30524e-20 0 0 -1.39168e-18 0 0 0 
1.62647e-18 -2.0331e-21 0 0 -1.62647e-18 0 0 0 
1.36899e-18 -3.33691e-20 0 0 -1.36899e-18 0 0 1.25964e-30 
1.35231e-18 -3.21174e-20 0 0 -1.35231e-18 0 0 0 
1.50115e-18 -1.87644e-21 0 0 -1.50115e-18 0 0 0 
1.25174e-18 -2.9729e-20 0 0 -1.25174e-18 0 0 0 
1.33176e-18 -3.24617e-20 0 0 -1.33176e-18 0 0 0 
1.7209e-18 -2.15114e-21 0 0 -1.7209e-18 0 0 0 
1.28537e-18 -3.05277e-20 0 0 -1.28537e-18 0 0 0 
1.36596e-18 -3.32952e-20 0 0 -1.36596e-18 0 0 0 
1.54592e-18 -1.93239e-21 0 0 -1.54592e-18 0 0 0 
1.40317e-18 -3.33255e-20 0 0 -1.40317e-18 0 0 0 
1.33802e-18 -3.1778e-20 0 0 -1.33802e-18 0 0 0 
1.65508e-18 -2.06885e-21 0 0 -1.65508e-18 0 0 0 
1.31215e-18 -1.6402e-21 0 0 -1.31215e-18 0 0 0 
1.27201e-18 -1.59001e-21 0 0 -1.27201e-18 0 0 0 
1.34805e-18 -3.20164e-20 0 0 -1.34805e-18 0 0 1.2464e-30 
1.33425e-18 -3.16886e-20 0 0 -1.33425e-18 0 0 0 
1.34728e-18 -3.19981e-20 0 0 -1.34728e-18 0 0 1.23776e-30 
1.54388e-18 -1.92985e-21 0 0 -1.54388e-18 0 0 0 
1.3646e-18 -3.24093e-20 0 0 -1.3646e-18 0 0 0 
1.31097e-18 -3.11355e-20 0 0 -1.31097e-18 0 0 0 
1.45668e-18 -3.45961e-20 0 0 -1.45668e-18 0 0 0 
1.57555e-18 -1.96944e-21 0 0 -1.57555e-18 0 0 0 
1.41646e-18 -3.36409e-20 0 0 -1.41646e-18 0 0 0 
1.35909e-18 -3.22784e-20 0 0 -1.35909e-18 0 0 0 
1.28497e-18 -3.0518e-20 0 0 -1.28497e-18 0 0 0 
1.72101e-18 -2.15128e-21 0 0 -1.72101e-18 0 0 0 
1.29716e-18 -3.08078e-20 0 0 -1.29716e-18 0 0 0 
1.21034e-18 -2.9502e-20 0 0 -1.21034e-18 0 0 1.11728e-30 
1.53539e-18 -1.91925e-21 0 0 -1.53539e-18 0 0 0 
1.25216e-18 -2.97388e-20 0 0 -1.25216e-18 0 0 0 
1.29625e-18 -3.07858e-20 0 0 -1.29625e-18 0 0 0 
1.53531e-18 -1.91915e-21 0 0 -1.53531e-18 0 0 0 
1.27907e-18 -3.03781e-20 0 0 -1.27907e-18 0 0 0 
1.35922e-18 -3.22816e-20 0 0 -1.35922e-18 0 0 0 
1.75942e-18 -2.19927e-21 0 0 -1.75942e-18 0 0 0 
1.39294e-18 -3.30823e-20 0 0 -1.39294e-18 0 0 0 
1.25656e-18 -2.98433e-20 0 0 -1.25656e-18 0 0 0 
1.37757e-18 -1.72196e-21 0 0 -1.37757e-18 0 0 0 
1.59769e-18 -1.99713e-21 0 0 -1.59769e-18 0 0 0 
1.37523e-18 -3.26617e-20 0 0 -1.37523e-18 0 0 0 
1.44855e-18 -3.44031e-20 0 0 -1.44855e-18 0 0 0 
1.56245e-18 -1.95307e-21 0 0 -1.56245e-18 0 0 0 
1.36495e-18 -3.24175e-20 0 0 -1.36495e-18 0 0 0 
1.30995e-18 -3.11112e-20 0 0 -1.30995e-18 0 0 0 
1.34676e-18 -3.19856e-20 0 0 -1.34676e-18 0 0 0 
1.33994e-18 -3.18237e-20 0 0 -1.33994e-18 0 0 0 
1.33562e-18 -3.1721e-20 0 0 -1.33562e-18 0 0 0 
1.40372e-18 -3.42158e-20 0 0 -1.40372e-18 0 0 0 
1.38127e-18 -3.45318e-20 0 0 -1.38127e-18 0 0 0 
1.3187e-18 -3.29675e-20 0 0 -1.3187e-18 0 0 0 
1.27602e-18 -3.19005e-20 0 0 -1.27602e-18 0 0 0 
1.31646e-18 -3.29115e-20 0 0 -1.31646e-18 0 0 0 
1.3311e-18 -1.14474e-18 0 0 -1.3311e-18 0 0 1.22754e-30 
1.34637e-18 -6.39524e-19 0 0 -1.34637e-18 0 0 1.24055e-30 
1.33365e-18 -6.33485e-19 0 0 -1.33365e-18 0 0 0 
1.32632e-18 -6.3e-19 0 0 -1.32632e-18 0 0 0 
1.32785e-18 -6.47329e-19 0 0 -1.32785e-18 0 0 0 
1.34135e-18 -1.15356e-18 0 0 -1.34135e-18 0 0 1.23797e-30 
1.34727e-18 -6.39951e-19 0 0 -1.34727e-18 0 0 0 
1.32657e-18 -6.3012e-19 0 0 -1.32657e-18 0 0 0 
1.33951e-18 -6.36266e-19 0 0 -1.33951e-18 0 0 0 
1.32745e-18 -6.4713e-19 0 0 -1.32745e-18 0 0 0 
1.35487e-18 -3.38719e-20 0 0 -1.35487e-18 0 0 1.24795e-30 
1.24437e-18 -3.11092e-20 0 0 -1.24437e-18 0 0 0 
1.4394e-18 -3.5985e-20 0 0 -1.4394e-18 0 0 1.32077e-30 
2.78308e-21 0 0 -1.6281e-20 0 0 -2.78308e-21 0 
0 0 0 0 0 0 0 0 
0 0 0 0 0 0 0 0 
0 0 0 0 0 0 0 0 
0 0 0 0 0 0 0 0 
0 0 0 0 0 0 0 0 
0 0 0 0 0 0 0 0 
0 0 0 0 0 0 0 0 
0 0 0 0 0 0 0 0 
0 0 0 0 0 0 0 0 
1.59219e-21 1.94048e-23 0 0 1.59219e-21 0 0 0 
0 0 0 0 0 0 0 0 
0 0 0 0 0 0 0 0 
8.33739e-22 1.98013e-23 0 0 8.33739e-22 0 0 0 
2.31266e-21 5.49257e-23 0 0 2.31266e-21 0 0 0 
2.29159e-21 5.44252e-23 0 0 2.29159e-21 0 0 0 
0 0 0 0 0 0 0 0 
2.09608e-21 4.97819e-23 0 0 2.09608e-21 0 0 0 
0 0 0 0 0 0 0 0 
0 0 0 0 0 0 0 0 
0 0 0 0 0 0 0 0 
0 0 0 0 0 0 0 0 
0 0 0 0 0 0 0 0 
0 0 0 0 0 0 0 0 
0 0 0 0 0 0 0 0 
0 0 0 0 0 0 0 0 
0 0 0 0 0 0 0 0 
0 0 0 0 0 0 0 0 
0 0 0 0 0 0 0 0 
7.4029e-22 1.75819e-23 0 0 7.4029e-22 0 0 0 
0 0 0 0 0 0 0 0 
0 0 0 0 0 0 0 0 
0 0 0 0 0 0 0 0 
0 0 0 0 0 0 0 0 
0 0 0 0 0 0 0 0 
0 0 0 0 0 0 0 0 
0 0 0 0 0 0 0 0 
0 0 0 0 0 0 0 0 
0 0 0 0 0 0 0 0 
0 0 0 0 0 0 0 0 
7.22546e-22 1.71605e-23 0 0 7.22546e-22 0 0 0 
0 0 0 0 0 0 0 0 
2.38023e-21 5.65305e-23 0 0 2.38023e-21 0 0 0 
0 0 0 0 0 0 0 0 
0 0 0 0 0 0 0 0 
0 0 0 0 0 0 0 0 
0 0 0 0 0 0 0 0 
0 0 0 0 0 0 0 0 
0 0 0 0 0 0 0 0 
0 0 0 0 0 0 0 0 
0 0 0 0 0 0 0 0 
0 0 0 0 0 0 0 0 
1.64374e-21 3.9039e-23 0 0 1.64374e-21 0 0 0 
0 0 0 0 0 0 0 0 
0 0 0 0 0 0 0 0 
0 0 0 0 0 0 0 0 
0 0 0 0 0 0 0 0 
0 0 0 0 0 0 0 0 
0 0 0 0 0 0 0 0 
0 0 0 0 0 0 0 0 
0 0 0 0 0 0 0 0 
0 0 0 0 0 0 0 0 
0 0 0 0 0 0 0 0 
0 0 0 0 0 0 0 0 
0 0 0 0 0 0 0 0 
0 0 0 0 0 0 0 0 
0 0 0 0 0 0 0 0 
0 0 0 0 0 0 0 0 
8.62322e-22 2.04802e-23 0 0 8.62322e-22 0 0 0 
0 0 0 0 0 0 0 0 
0 0 0 0 0 0 0 0 
0 0 0 0 0 0 0 0 
0 0 0 0 0 0 0 0 
0 0 0 0 0 0 0 0 
0 0 0 0 0 0 0 0 
0 0 0 0 0 0 0 0 
0 0 0 0 0 0 0 0 
8.56567e-22 2.03435e-23 0 0 8.56567e-22 0 0 0 
0 0 0 0 0 0 0 0 
0 0 0 0 0 0 0 0 
0 0 0 0 0 0 0 0 
0 0 0 0 0 0 0 0 
0 0 0 0 0 0 0 0 
2.78566e-19 -2.92492e-19 -3.58229e-19 -3.58229e-19 -1.39283e-19 -1.70586e-19 -1.70586e-19 -9.23768e-32 
2.22868e-21 0 0 -3.29574e-19 0 0 -2.22868e-21 0 
1.19933e-21 0 2.42968e-19 -2.42968e-19 0 8.48057e-22 -8.48057e-22 -5.74914e-35 
2.80663e-19 -2.94694e-19 3.60925e-19 3.60925e-19 -1.40331e-19 1.7187e-19 1.7187e-19 -9.38698e-32 
2.2412e-21 0 0 3.31426e-19 0 0 2.2412e-21 0 
2.21519e-21 0 -2.02063e-19 2.02063e-19 0 -1.56638e-21 1.56638e-21 1.33745e-34 
2.46725e-21 0 -1.44334e-20 0 0 -2.46725e-21 0 0 
2.47142e-21 0 1.44578e-20 0 0 2.47142e-21 0 0 
2.37959e-21 0 0 -1.35637e-20 0 0 -2.37959e-21 0 
2.48431e-21 0 0 1.41606e-20 0 0 2.48431e-21 0 
2.45481e-21 0 0 -1.39924e-20 0 0 -2.45481e-21 0 
2.41465e-21 0 0 1.37635e-20 0 0 2.41465e-21 0 
2.49181e-21 0 0 1.42033e-20 0 0 2.49181e-21 0 
2.42816e-21 0 0 -1.38405e-20 0 0 -2.42816e-21 0 
2.39474e-21 0 0 -1.365e-20 0 0 -2.39474e-21 0 
2.37406e-21 0 0 1.35321e-20 0 0 2.37406e-21 0 
2.38664e-21 0 0 -1.36038e-20 0 0 -2.38664e-21 0 
2.39267e-21 0 0 1.36382e-20 0 0 2.39267e-21 0 
2.47568e-21 0 -1.41114e-20 0 0 -2.47568e-21 0 0 
2.44102e-21 0 1.39138e-20 0 0 2.44102e-21 0 0 
2.4489e-21 0 0 -1.39587e-20 0 0 -2.4489e-21 0 
2.51114e-21 0 0 1.43135e-20 0 0 2.51114e-21 0 
2.52855e-21 0 -1.44128e-20 0 0 -2.52855e-21 0 0 
2.57085e-21 0 1.46538e-20 0 0 2.57085e-21 0 0 
2.4645e-21 0 -1.40477e-20 0 0 -2.4645e-21 0 0 
2.47291e-21 0 1.40956e-20 0 0 2.47291e-21 0 0 
2.46098e-21 0 1.43967e-20 0 0 2.46098e-21 0 0 
2.48959e-21 0 -1.45641e-20 0 0 -2.48959e-21 0 0 
2.39731e-21 0 1.40243e-20 0 0 2.39731e-21 0 0 
2.39341e-21 0 -1.40015e-20 0 0 -2.39341e-21 0 0 
2.42953e-21 0 -1.38483e-20 0 0 -2.42953e-21 0 0 
2.43461e-21 0 1.38773e-20 0 0 2.43461e-21 0 0 
2.43367e-21 0 1.4237e-20 0 0 2.43367e-21 0 0 
2.50607e-21 0 -7.33026e-21 0 0 -2.50607e-21 0 0 
2.44915e-21 0 0 7.16376e-21 0 0 2.44915e-21 0 
2.46827e-21 0 0 -1.40692e-20 0 0 -2.46827e-21 0 
2.89864e-21 0 0 1.65223e-20 0 0 2.89864e-21 0 
2.40654e-21 0 0 1.40783e-20 0 0 2.40654e-21 0 
2.38902e-21 0 0 -1.39758e-20 0 0 -2.38902e-21 0 
2.37295e-21 0 -1.35258e-20 0 0 -2.37295e-21 0 0 
2.41687e-21 0 1.37762e-20 0 0 2.41687e-21 0 0 
2.47127e-21 0 -1.40862e-20 0 0 -2.47127e-21 0 0 
2.38555e-21 0 1.35977e-20 0 0 2.38555e-21 0 0 
2.4623e-21 0 0 1.40351e-20 0 0 2.4623e-21 0 
2.42923e-21 0 0 -1.38466e-20 0 0 -2.42923e-21 0 
2.37484e-21 0 -1.35366e-20 0 0 -2.37484e-21 0 0 
2.38173e-21 0 1.35759e-20 0 0 2.38173e-21 0 0 
2.48089e-21 0 0 1.41411e-20 0 0 2.48089e-21 0 
2.36576e-21 0 0 -1.34848e-20 0 0 -2.36576e-21 0 
2.38053e-21 0 -1.3569e-20 0 0 -2.38053e-21 0 0 
2.43392e-21 0 1.38733e-20 0 0 2.43392e-21 0 0 
2.39885e-21 0 0 1.36735e-20 0 0 2.39885e-21 0 
2.79653e-21 0 0 -1.59402e-20 0 0 -2.79653e-21 0 
2.47676e-21 0 1.41175e-20 0 0 2.47676e-21 0 0 
2.42698e-21 0 -1.38338e-20 0 0 -2.42698e-21 0 0 
2.42385e-21 0 1.38159e-20 0 0 2.42385e-21 0 0 
2.44298e-21 0 -1.3925e-20 0 0 -2.44298e-21 0 0 
2.3638e-21 0 0 -1.34736e-20 0 0 -2.3638e-21 0 
2.46388e-21 0 0 1.40441e-20 0 0 2.46388e-21 0 
2.46349e-21 0 0 1.40419e-20 0 0 2.46349e-21 0 
2.81622e-21 0 0 -1.60524e-20 0 0 -2.81622e-21 0 
2.4293e-21 0 0 1.3847e-20 0 0 2.4293e-21 0 
2.86995e-21 0 0 -1.63587e-20 0 0 -2.86995e-21 0 
2.41598e-21 0 -1.37711e-20 0 0 -2.41598e-21 0 0 
2.88446e-21 0 1.64414e-20 0 0 2.88446e-21 0 0 
2.46834e-21 0 -1.40695e-20 0 0 -2.46834e-21 0 0 
2.43289e-21 0 1.38675e-20 0 0 2.43289e-21 0 0 
2.82479e-21 0 1.6525e-20 0 0 2.82479e-21 0 0 
2.37134e-21 0 0 -1.38724e-20 0 0 -2.37134e-21 0 
2.49379e-21 0 -1.45887e-20 0 0 -2.49379e-21 0 0 
2.42347e-21 0 1.41773e-20 0 0 2.42347e-21 0 0 
2.40157e-21 0 1.40492e-20 0 0 2.40157e-21 0 0 
2.44247e-21 0 -1.42884e-20 0 0 -2.44247e-21 0 0 
2.42031e-21 0 0 -1.41588e-20 0 0 -2.42031e-21 0 
2.40046e-21 0 0 1.40427e-20 0 0 2.40046e-21 0 
2.40677e-21 0 0 1.40796e-20 0 0 2.40677e-21 0 
2.30627e-21 0 0 -1.34917e-20 0 0 -2.30627e-21 0 
2.84326e-21 0 -1.62066e-20 0 0 -2.84326e-21 0 0 
2.33787e-21 0 1.33259e-20 0 0 2.33787e-21 0 0 
2.41959e-21 0 0 -1.41546e-20 0 0 -2.41959e-21 0 
2.45964e-21 0 0 1.43889e-20 0 0 2.45964e-21 0 
2.38858e-21 0 -6.98661e-21 0 0 -2.38858e-21 0 0 
2.86553e-21 0 -1.67634e-20 0 0 -2.86553e-21 0 0 
2.90174e-21 0 1.69752e-20 0 0 2.90174e-21 0 0 
2.84611e-21 0 -1.66497e-20 0 0 -2.84611e-21 0 0 
2.89682e-21 0 1.69464e-20 0 0 2.89682e-21 0 0 
2.8e-21 0 -1.596e-20 0 0 -2.8e-21 0 0 
2.42152e-21 0 1.38027e-20 0 0 2.42152e-21 0 0 
2.80069e-21 0 0 -1.63841e-20 0 0 -2.80069e-21 0 
2.76648e-21 0 0 1.61839e-20 0 0 2.76648e-21 0 
2.45844e-21 0 1.40131e-20 0 0 2.45844e-21 0 0 
2.95151e-21 0 -1.68236e-20 0 0 -2.95151e-21 0 0 
2.86745e-21 0 0 1.63445e-20 0 0 2.86745e-21 0 
2.85477e-21 0 0 -1.62722e-20 0 0 -2.85477e-21 0 
2.87062e-21 0 0 1.67931e-20 0 0 2.87062e-21 0 
2.45115e-21 0 7.1696e-21 0 0 2.45115e-21 0 0 
2.41594e-21 0 -1.37708e-20 0 0 -2.41594e-21 0 0 
2.92769e-21 0 1.66878e-20 0 0 2.92769e-21 0 0 
2.87788e-21 0 1.64039e-20 0 0 2.87788e-21 0 0 
2.78647e-21 0 -1.58829e-20 0 0 -2.78647e-21 0 0 
2.80802e-21 0 1.60057e-20 0 0 2.80802e-21 0 0 
2.84414e-21 0 -1.62116e-20 0 0 -2.84414e-21 0 0 
2.77049e-21 0 0 -1.57918e-20 0 0 -2.77049e-21 0 
2.82411e-21 0 0 1.60975e-20 0 0 2.82411e-21 0 
2.38924e-21 0 1.36187e-20 0 0 2.38924e-21 0 0 
2.87597e-21 0 -1.6393e-20 0 0 -2.87597e-21 0 0 
2.86593e-21 0 0 -1.63358e-20 0 0 -2.86593e-21 0 
2.84886e-21 0 0 1.62385e-20 0 0 2.84886e-21 0 
2.77201e-21 0 1.58004e-20 0 0 2.77201e-21 0 0 
2.45502e-21 0 -1.39936e-20 0 0 -2.45502e-21 0 0 
2.82021e-21 0 -1.60752e-20 0 0 -2.82021e-21 0 0 
2.74138e-21 0 1.56259e-20 0 0 2.74138e-21 0 0 
2.82936e-21 0 0 -1.61273e-20 0 0 -2.82936e-21 0 
2.77111e-21 0 0 1.57953e-20 0 0 2.77111e-21 0 
2.8274e-21 0 0 -1.61162e-20 0 0 -2.8274e-21 0 
2.88642e-21 0 0 1.64526e-20 0 0 2.88642e-21 0 
2.81475e-21 0 0 1.60441e-20 0 0 2.81475e-21 0 
2.79383e-21 0 0 -1.59248e-20 0 0 -2.79383e-21 0 
2.94701e-21 0 -1.6798e-20 0 0 -2.94701e-21 0 0 
2.86161e-21 0 1.63112e-20 0 0 2.86161e-21 0 0 
2.80203e-21 0 0 1.59716e-20 0 0 2.80203e-21 0 
2.95138e-21 0 0 -1.68228e-20 0 0 -2.95138e-21 0 
2.83746e-21 0 0 -1.61735e-20 0 0 -2.83746e-21 0 
2.39607e-21 0 0 1.36576e-20 0 0 2.39607e-21 0 
2.83604e-21 0 1.61654e-20 0 0 2.83604e-21 0 0 
2.81831e-21 0 -1.60644e-20 0 0 -2.81831e-21 0 0 
2.8077e-21 0 -1.60039e-20 0 0 -2.8077e-21 0 0 
2.86381e-21 0 1.63237e-20 0 0 2.86381e-21 0 0 
2.84656e-21 0 0 1.62254e-20 0 0 2.84656e-21 0 
2.84148e-21 0 0 -1.61964e-20 0 0 -2.84148e-21 0 
2.87117e-21 0 1.63656e-20 0 0 2.87117e-21 0 0 
2.91436e-21 0 -1.66118e-20 0 0 -2.91436e-21 0 0 
2.8343e-21 0 0 1.61555e-20 0 0 2.8343e-21 0 
2.82001e-21 0 0 -1.6074e-20 0 0 -2.82001e-21 0 
2.12659e-21 -2.8823e-24 0 -1.51519e-21 -4.04532e-24 0 -2.12659e-21 1.72159e-34 
8.25418e-21 -1.01191e-22 -3.4001e-23 -1.52069e-21 -5.47906e-22 -1.84102e-22 -8.23392e-21 3.60019e-34 
4.05977e-21 -2.90984e-23 -1.28006e-23 -7.50846e-22 -1.57192e-22 -6.91497e-23 -4.05613e-21 6.99795e-34 
7.79729e-21 -9.60223e-23 -6.42386e-23 -1.41104e-21 -5.28842e-22 -3.53793e-22 -7.77128e-21 -6.43999e-34 
1.8692e-21 -2.22457e-25 -6.68468e-28 -4.673e-22 -8.89829e-25 -2.67387e-27 -1.8692e-21 -3.806e-34 
1.70595e-21 -2.4169e-24 -1.26745e-23 -4.09765e-22 -1.00572e-23 -5.27408e-23 -1.70511e-21 -4.19789e-34 
2.5239e-21 -4.46165e-24 -1.41174e-23 -4.06856e-22 -2.76592e-23 -8.7518e-23 -2.52223e-21 2.48738e-34 
2.76659e-21 -9.0237e-24 -2.17618e-23 -4.99904e-22 -4.98839e-23 -1.20302e-22 -2.76352e-21 2.59831e-34 
4.99033e-21 -3.52437e-23 -1.57346e-23 -9.22952e-22 -1.90394e-22 -8.50017e-23 -4.98597e-21 1.02804e-33 
3.03184e-21 -1.69492e-23 -2.86789e-23 -5.45259e-22 -9.40684e-23 -1.59169e-22 -3.0262e-21 -7.76221e-34 
4.19516e-21 -4.00949e-23 -3.06576e-23 -7.62382e-22 -2.20148e-22 -1.68331e-22 -4.18599e-21 -1.56395e-49 
1.56124e-21 -2.43152e-24 -5.91397e-24 -5.10581e-22 -7.43445e-24 -1.80822e-23 -1.56112e-21 -5.64324e-34 
2.94642e-21 -8.54247e-24 -5.49384e-24 -4.85702e-22 -5.18099e-23 -3.332e-23 -2.94577e-21 6.95282e-35 
2.37992e-21 -3.27139e-24 -1.13006e-23 -2.85161e-22 -2.72794e-23 -9.42331e-23 -2.37789e-21 5.73567e-35 
1.86527e-21 -3.23654e-24 -5.26403e-24 -3.04618e-22 -1.98142e-23 -3.22267e-23 -1.86489e-21 -1.82474e-34 
8.03144e-22 -2.54737e-25 0 -1.5059e-23 -1.3584e-23 0 -8.03029e-22 9.78109e-34 
3.08703e-21 -9.97635e-24 1.61884e-23 -5.64811e-22 -5.4496e-23 8.84292e-23 -3.08529e-21 -4.57137e-34 
2.37299e-21 -8.69584e-24 0 -8.45379e-22 -2.44081e-23 0 -2.37287e-21 1.41581e-34 
2.02673e-21 -2.58328e-25 6.50375e-24 -4.88237e-22 -1.07225e-24 2.69954e-23 -2.02654e-21 6.6617e-35 
1.6597e-21 -2.35137e-24 1.23308e-23 -3.98655e-22 -9.78449e-24 5.13108e-23 -1.65888e-21 2.76679e-34 
5.69359e-21 -5.44801e-23 4.69071e-23 -1.03034e-21 -3.00322e-22 2.58576e-22 -5.67978e-21 1.45348e-34 
3.76746e-21 -2.66418e-23 1.37662e-23 -6.95528e-22 -1.44176e-22 7.4498e-23 -3.76396e-21 2.04727e-34 
4.69278e-21 -4.06053e-23 5.14414e-23 -8.39273e-22 -2.26355e-22 2.86761e-22 -4.67853e-21 4.60119e-34 
3.01041e-21 -1.50552e-23 1.8984e-23 -5.49086e-22 -8.24612e-23 1.0398e-22 -3.00748e-21 -3.51626e-34 
1.87886e-21 -3.65721e-24 1.05093e-23 -3.02874e-22 -2.26719e-23 6.51499e-23 -1.87759e-21 1.42134e-34 
2.39029e-21 -4.14054e-24 4.45689e-24 -3.94027e-22 -2.51148e-23 2.70336e-23 -2.39e-21 4.1721e-35 
3.25833e-21 -3.0457e-23 0 -1.16078e-21 -8.5464e-23 0 -3.25721e-21 2.28394e-34 
1.93814e-21 -6.57816e-25 0 -1.38092e-21 -9.23251e-25 0 -1.93814e-21 1.43198e-34 
2.39401e-21 -3.94247e-24 1.40623e-23 -5.82283e-22 -1.6204e-23 5.77977e-23 -2.39325e-21 2.49725e-34 
6.58987e-21 -7.84113e-23 0 -1.20471e-21 -4.28011e-22 0 -6.57595e-21 -7.44654e-34 
2.33696e-21 -3.16743e-24 1.66509e-21 0 -4.44551e-24 2.33696e-21 0 -5.30957e-35 
7.86467e-21 -9.64156e-23 1.44893e-21 -3.23965e-23 -5.22051e-22 7.84537e-21 -1.75414e-22 -1.48973e-34 
3.62098e-21 -2.59534e-23 6.69694e-22 -1.14171e-23 -1.40203e-22 3.61774e-21 -6.16759e-23 -6.44059e-34 
9.273e-21 -1.14196e-22 1.67809e-21 -7.63964e-23 -6.28931e-22 9.24208e-21 -4.20752e-22 -1.45215e-34 
1.95614e-21 -2.32805e-25 4.89036e-22 -6.99561e-28 -9.31219e-25 1.95614e-21 -2.79824e-27 -1.00882e-34 
1.82918e-21 -2.59148e-24 4.39364e-22 -1.359e-23 -1.07836e-23 1.82828e-21 -5.65505e-23 9.54066e-35 
2.13563e-21 -3.77529e-24 3.44267e-22 -1.19456e-23 -2.34042e-23 2.13422e-21 -7.40546e-23 1.42136e-34 
2.63892e-21 -8.60729e-24 4.76836e-22 -2.07576e-23 -4.7582e-23 2.636e-21 -1.1475e-22 -2.02795e-34 
4.35677e-21 -3.07692e-23 8.05776e-22 -1.3737e-23 -1.66222e-22 4.35296e-21 -7.421e-23 1.05281e-34 
3.30341e-21 -1.84674e-23 5.94099e-22 -3.12478e-23 -1.02494e-22 3.29726e-21 -1.73426e-22 3.81748e-35 
4.86563e-21 -4.65029e-23 8.84227e-22 -3.55573e-23 -2.55333e-22 4.855e-21 -1.95234e-22 -1.95128e-34 
1.77175e-21 -2.75937e-24 5.79425e-22 -6.71138e-24 -8.43687e-24 1.77161e-21 -2.05203e-23 2.9443e-34 
2.35987e-21 -6.84191e-24 3.89013e-22 -4.40017e-24 -4.14961e-23 2.35936e-21 -2.6687e-23 1.59915e-34 
2.35412e-21 -3.23593e-24 2.8207e-22 -1.11781e-23 -2.69837e-23 2.35211e-21 -9.32115e-23 -2.19868e-34 
2.23129e-21 -3.87164e-24 3.64393e-22 -6.29699e-24 -2.37024e-23 2.23083e-21 -3.85505e-23 5.05313e-34 
5.58355e-22 -1.77096e-25 1.04692e-23 0 -9.44376e-24 5.58275e-22 0 0 
2.33191e-21 -7.53601e-24 4.26651e-22 1.22285e-23 -4.11655e-23 2.33059e-21 6.67983e-23 2.50486e-35 
2.87482e-21 -1.05348e-23 1.02416e-21 0 -2.95698e-23 2.87467e-21 0 2.34896e-34 
1.57397e-21 -2.00619e-25 3.79167e-22 5.05085e-24 -8.32715e-25 1.57383e-21 2.09648e-23 2.85501e-35 
1.88339e-21 -2.66828e-24 4.52385e-22 1.39927e-23 -1.11032e-23 1.88246e-21 5.82263e-23 -4.86574e-34 
5.01401e-21 -4.79774e-23 9.07363e-22 4.13083e-23 -2.64476e-22 5.00185e-21 2.27713e-22 4.48683e-34 
3.72156e-21 -2.63172e-23 6.87053e-22 1.35985e-23 -1.4242e-22 3.7181e-21 7.35903e-23 6.07978e-34 
4.02097e-21 -3.47924e-23 7.19125e-22 4.40772e-23 -1.9395e-22 4.00877e-21 2.45709e-22 1.27811e-35 
3.47823e-21 -1.73949e-23 6.34416e-22 2.19342e-23 -9.52758e-23 3.47485e-21 1.20139e-22 2.07208e-34 
2.28606e-21 -4.44983e-24 3.68516e-22 1.2787e-23 -2.75856e-23 2.28452e-21 7.92698e-23 4.90364e-34 
2.60619e-21 -4.51453e-24 4.29617e-22 4.85945e-24 -2.73833e-23 2.60588e-21 2.94754e-23 -1.3907e-35 
4.26002e-21 -3.98203e-23 1.51763e-21 0 -1.11738e-22 4.25855e-21 0 3.18465e-34 
2.0228e-21 -6.86552e-25 1.44124e-21 0 -9.63581e-25 2.0228e-21 0 8.04482e-36 
2.00931e-21 -3.30895e-24 4.88715e-22 1.18026e-23 -1.36002e-23 2.00868e-21 4.85101e-23 -3.48672e-34 
7.40041e-21 -8.80558e-23 1.35289e-21 0 -4.80656e-22 7.38478e-21 0 -2.44046e-34 
2.11915e-21 -2.87222e-24 0 1.5099e-21 -4.03118e-24 0 2.11915e-21 -3.08921e-34 
7.52815e-21 -9.22901e-23 3.10103e-23 1.38693e-21 -4.99713e-22 1.67908e-22 7.50967e-21 -5.77271e-34 
4.78845e-21 -3.43213e-23 1.50981e-23 8.85615e-22 -1.85406e-22 8.15613e-23 4.78417e-21 -3.03451e-34 
8.28113e-21 -1.01981e-22 6.82248e-23 1.4986e-21 -5.61658e-22 3.75747e-22 8.25351e-21 1.83098e-34 
1.62786e-21 -1.93735e-25 5.82159e-28 4.06965e-22 -7.74939e-25 2.32864e-27 1.62786e-21 3.11817e-34 
1.83772e-21 -2.60357e-24 1.36534e-23 4.41415e-22 -1.0834e-23 5.68144e-23 1.83681e-21 4.00708e-34 
2.53513e-21 -4.48151e-24 1.41802e-23 4.08666e-22 -2.77823e-23 8.79074e-23 2.53345e-21 -1.49243e-34 
2.53918e-21 -8.28196e-24 1.9973e-23 4.58813e-22 -4.57835e-23 1.10413e-22 2.53636e-21 -6.78096e-34 
4.44707e-21 -3.1407e-23 1.40217e-23 8.22477e-22 -1.69667e-22 7.57482e-23 4.44319e-21 1.2386e-34 
3.08302e-21 -1.72353e-23 2.91631e-23 5.54463e-22 -9.56563e-23 1.61855e-22 3.07728e-21 -7.63496e-34 
5.14125e-21 -4.91372e-23 3.75715e-23 9.34316e-22 -2.69796e-22 2.06293e-22 5.13002e-21 -5.91677e-34 
1.65101e-21 -2.57133e-24 6.25402e-24 5.39939e-22 -7.86192e-24 1.91219e-23 1.65088e-21 2.06802e-34 
2.43228e-21 -7.05184e-24 4.53519e-24 4.00949e-22 -4.27693e-23 2.75058e-23 2.43175e-21 -5.07556e-34 
2.20124e-21 -3.02579e-24 1.04522e-23 2.63753e-22 -2.52314e-23 8.71585e-23 2.19937e-21 -9.55946e-35 
2.93776e-21 -5.09748e-24 8.29075e-24 4.79767e-22 -3.1207e-23 5.07564e-23 2.93716e-21 4.91277e-34 
1.82558e-21 -5.79027e-25 0 3.42296e-23 -3.0877e-23 0 1.82532e-21 -1.22264e-34 
3.00658e-21 -9.71635e-24 -1.57665e-23 5.50091e-22 -5.30757e-23 -8.61246e-23 3.00488e-21 -2.19175e-34 
2.66835e-21 -9.77819e-24 0 9.506e-22 -2.74461e-23 0 2.66821e-21 -2.41332e-34 
1.89315e-21 -2.41302e-25 -6.0751e-24 4.56058e-22 -1.00158e-24 -2.52162e-23 1.89298e-21 -7.13753e-35 
2.10207e-21 -2.97809e-24 -1.56174e-23 5.04911e-22 -1.23924e-23 -6.4987e-23 2.10103e-21 -1.66962e-34 
5.18328e-21 -4.95971e-23 -4.27029e-23 9.37994e-22 -2.73405e-22 -2.354e-22 5.1707e-21 3.15974e-34 
4.24379e-21 -3.00102e-23 -1.55067e-23 7.83466e-22 -1.62405e-22 -8.39171e-23 4.23985e-21 -5.58347e-35 
4.61648e-21 -3.99452e-23 -5.06051e-23 8.25629e-22 -2.22675e-22 -2.82099e-22 4.60247e-21 1.06083e-33 
3.1871e-21 -1.59389e-23 -2.00983e-23 5.81316e-22 -8.73013e-23 -1.10083e-22 3.18401e-21 -5.65113e-34 
2.52906e-21 -4.92283e-24 -1.41463e-23 4.07688e-22 -3.05178e-23 -8.76959e-23 2.52736e-21 4.26403e-34 
2.30784e-21 -3.99772e-24 -4.30315e-24 3.80435e-22 -2.42485e-23 -2.61012e-23 2.30756e-21 -6.25816e-35 
3.64859e-21 -3.4105e-23 0 1.29981e-21 -9.57003e-23 0 3.64733e-21 8.10639e-34 
2.10173e-21 -7.1334e-25 0 1.49748e-21 -1.00118e-24 0 2.10173e-21 -6.59675e-35 
2.0984e-21 -3.45567e-24 -1.23259e-23 5.10385e-22 -1.42032e-23 -5.0661e-23 2.09774e-21 -1.69624e-34 
7.83432e-21 -9.32188e-23 0 1.43221e-21 -5.08838e-22 0 7.81778e-21 -1.12637e-34 
2.18247e-21 -2.95804e-24 -1.55501e-21 0 -4.15162e-24 -2.18247e-21 0 2.73523e-35 
8.52343e-21 -1.04491e-22 -1.57029e-21 3.51101e-23 -5.65779e-22 -8.5025e-21 1.90107e-22 4.77956e-34 
3.53723e-21 -2.53531e-23 -6.54204e-22 1.1153e-23 -1.3696e-22 -3.53406e-21 6.02493e-23 1.48629e-34 
8.59314e-21 -1.05823e-22 -1.55506e-21 7.07953e-23 -5.8282e-22 -8.56448e-21 3.89904e-22 -1.89411e-35 
1.77219e-21 -2.10912e-25 -4.43047e-22 6.33774e-28 -8.43647e-25 -1.77219e-21 2.5351e-27 1.97179e-34 
1.68593e-21 -2.38852e-24 -4.04955e-22 1.25257e-23 -9.9391e-24 -1.68509e-21 5.21216e-23 -1.04947e-34 
2.29347e-21 -4.05432e-24 -3.69711e-22 1.28285e-23 -2.5134e-23 -2.29195e-21 7.95278e-23 -1.27923e-34 
2.34948e-21 -7.66323e-24 -4.24536e-22 1.84809e-23 -4.23631e-23 -2.34688e-21 1.02164e-22 2.21807e-34 
4.05888e-21 -2.86655e-23 -7.50683e-22 1.27978e-23 -1.54857e-22 -4.05534e-21 6.91361e-23 -9.28952e-35 
3.00372e-21 -1.6792e-23 -5.40203e-22 2.8413e-23 -9.31961e-23 -2.99813e-21 1.57693e-22 -8.90745e-35 
5.21573e-21 -4.9849e-23 -9.4785e-22 3.81158e-23 -2.73705e-22 -5.20434e-21 2.09282e-22 8.18277e-35 
1.70937e-21 -2.66221e-24 -5.59023e-22 6.47507e-24 -8.13981e-24 -1.70923e-21 1.97978e-23 2.45358e-35 
2.57046e-21 -7.45248e-24 -4.23728e-22 4.79284e-24 -4.51992e-23 -2.5699e-21 2.90685e-23 4.17169e-35 
2.55427e-21 -3.51106e-24 -3.06053e-22 1.21285e-23 -2.92779e-23 -2.5521e-21 1.01137e-22 -4.58854e-34 
2.0445e-21 -3.54753e-24 -3.33888e-22 5.76985e-24 -2.17182e-23 -2.04408e-21 3.53233e-23 3.50912e-35 
5.44773e-22 -1.72788e-25 -1.02145e-23 0 -9.21404e-24 -5.44695e-22 0 7.33582e-34 
2.49977e-21 -8.07848e-24 -4.57363e-22 -1.31088e-23 -4.41288e-23 -2.49835e-21 -7.16067e-23 -4.88448e-34 
2.44772e-21 -8.96969e-24 -8.72e-22 0 -2.51767e-23 -2.44759e-21 0 9.65327e-36 
1.9997e-21 -2.54883e-25 -4.81726e-22 -6.41702e-24 -1.05795e-24 -1.99952e-21 -2.66354e-23 -2.14126e-34 
1.81238e-21 -2.56768e-24 -4.35329e-22 -1.34652e-23 -1.06846e-23 -1.81149e-21 -5.60312e-23 -9.54066e-36 
6.77855e-21 -6.48618e-23 -1.22668e-21 -5.58457e-23 -3.57551e-22 -6.76211e-21 -3.0785e-22 7.70976e-34 
3.61624e-21 -2.55724e-23 -6.6761e-22 -1.32136e-23 -1.38389e-22 -3.61288e-21 -7.15078e-23 9.36783e-34 
3.50988e-21 -3.037e-23 -6.27719e-22 -3.84747e-23 -1.69298e-22 -3.49922e-21 -2.14477e-22 1.22698e-33 
3.49438e-21 -1.74756e-23 -6.37361e-22 -2.2036e-23 -9.57181e-23 -3.49098e-21 -1.20697e-22 -2.13487e-34 
2.68448e-21 -5.22536e-24 -4.32743e-22 -1.50156e-23 -3.23933e-23 -2.68267e-21 -9.30853e-23 4.97471e-34 
2.40896e-21 -4.17289e-24 -3.97105e-22 -4.49171e-24 -2.5311e-23 -2.40868e-21 -2.72448e-23 -1.94698e-34 
3.81923e-21 -3.57e-23 -1.3606e-21 0 -1.00176e-22 -3.81791e-21 0 2.86297e-34 
1.9537e-21 -6.63098e-25 -1.39201e-21 0 -9.30664e-25 -1.9537e-21 0 -2.34909e-34 
2.00666e-21 -3.30459e-24 -4.88071e-22 -1.1787e-23 -1.35823e-23 -2.00603e-21 -4.84462e-23 -1.22507e-34 
8.18095e-21 -9.73433e-23 -1.49558e-21 0 -5.31352e-22 -8.16368e-21 0 -6.5079e-34 
5.09861e-21 0 -4.25903e-21 -4.25903e-21 0 -3.60526e-21 -3.60526e-21 2.78315e-33 
0 0 0 0 0 0 0 0 
0 0 0 0 0 0 0 0 
0 0 0 0 0 0 0 0 
0 0 0 0 0 0 0 0 
0 0 0 0 0 0 0 0 
0 0 0 0 0 0 0 0 
0 0 0 0 0 0 0 0 
0 0 0 0 0 0 0 0 
0 0 0 0 0 0 0 0 
0 0 0 0 0 0 0 0 
0 0 0 0 0 0 0 0 
0 0 0 0 0 0 0 0 
0 0 0 0 0 0 0 0 
0 0 0 0 0 0 0 0 
0 0 0 0 0 0 0 0 
0 0 0 0 0 0 0 0 
0 0 0 0 0 0 0 0 
0 0 0 0 0 0 0 0 
0 0 0 0 0 0 0 0 
0 0 0 0 0 0 0 0 
0 0 0 0 0 0 0 0 
0 0 0 0 0 0 0 0 
0 0 0 0 0 0 0 0 
0 0 0 0 0 0 0 0 
0 0 0 0 0 0 0 0 
0 0 0 0 0 0 0 0 
0 0 0 0 0 0 0 0 
0 0 0 0 0 0 0 0 
0 0 0 0 0 0 0 0 
0 0 0 0 0 0 0 0 
0 0 0 0 0 0 0 0 
0 0 0 0 0 0 0 0 
0 0 0 0 0 0 0 0 
0 0 0 0 0 0 0 0 
0 0 0 0 0 0 0 0 
0 0 0 0 0 0 0 0 
0 0 0 0 0 0 0 0 
0 0 0 0 0 0 0 0 
0 0 0 0 0 0 0 0 
0 0 0 0 0 0 0 0 
0 0 0 0 0 0 0 0 
0 0 0 0 0 0 0 0 
0 0 0 0 0 0 0 0 
0 0 0 0 0 0 0 0 
0 0 0 0 0 0 0 0 
0 0 0 0 0 0 0 0 
5.13111e-21 0 4.28618e-21 4.28618e-21 0 3.62824e-21 3.62824e-21 2.75403e-33 
2.08062e-20 -8.51403e-22 -1.29026e-22 -4.8048e-21 -3.62899e-21 -5.49956e-22 -2.04798e-20 -9.54788e-33 
2.50683e-20 -1.52258e-21 -5.55984e-22 -8.44325e-21 -4.43952e-21 -1.62113e-21 -2.46187e-20 -6.8858e-33 
2.123e-20 -7.76903e-22 -1.36627e-22 -4.34502e-21 -3.73494e-21 -6.56829e-22 -2.08886e-20 -3.74763e-34 
4.51194e-20 -1.35524e-21 -1.08139e-21 -5.35783e-21 -1.08584e-20 -8.66423e-21 -4.29277e-20 -4.3537e-33 
6.15087e-20 -1.01966e-21 -6.02934e-22 -4.10037e-21 -1.46948e-20 -8.68913e-21 -5.90921e-20 -5.27022e-33 
5.90053e-20 -1.03756e-21 -4.10806e-22 -4.26487e-21 -1.38873e-20 -5.49847e-21 -5.70836e-20 9.97355e-34 
3.44683e-20 -5.64479e-22 -2.0652e-22 -2.54564e-21 -7.43856e-21 -2.72147e-21 -3.35458e-20 5.07588e-33 
2.01529e-20 -6.32876e-22 -1.77153e-22 -3.47641e-21 -3.60495e-21 -1.00909e-21 -1.98021e-20 7.18299e-34 
2.24847e-20 -7.83203e-22 -2.09668e-22 -4.2184e-21 -4.09957e-21 -1.09748e-21 -2.20806e-20 -1.69217e-33 
2.1535e-20 -6.9218e-22 -3.05308e-22 -3.67961e-21 -3.968e-21 -1.75021e-21 -2.10938e-20 4.4031e-34 
2.26215e-20 -7.54255e-22 -3.80862e-22 -3.85065e-21 -4.32806e-21 -2.18546e-21 -2.20958e-20 1.84189e-34 
5.37289e-20 -1.24419e-21 -1.0968e-21 -6.18271e-21 -1.0443e-20 -9.2059e-21 -5.18941e-20 1.706e-32 
2.29611e-20 -8.61775e-22 -4.98113e-22 -4.307e-21 -4.47624e-21 -2.58731e-21 -2.23715e-20 -2.81652e-33 
3.0331e-20 -6.60634e-22 -2.30608e-22 -3.25296e-21 -6.02208e-21 -2.10214e-21 -2.96528e-20 6.89701e-33 
2.6098e-20 -7.22096e-22 -3.89565e-22 -3.40252e-21 -5.38429e-21 -2.90478e-21 -2.53707e-20 -3.8466e-34 
4.25964e-20 -7.15887e-22 -3.39417e-22 -2.92325e-21 -1.00684e-20 -4.77362e-21 -4.11131e-20 -8.70641e-33 
3.41862e-20 -5.3208e-22 -2.33955e-22 -2.38754e-21 -7.40241e-21 -3.25483e-21 -3.3216e-20 -7.94249e-33 
3.32239e-20 -1.0227e-21 -4.5499e-22 -4.64324e-21 -7.11397e-21 -3.16494e-21 -3.22987e-20 -3.42896e-34 
2.87122e-20 -7.82922e-22 -5.32119e-22 -3.53336e-21 -6.14533e-21 -4.17672e-21 -2.77341e-20 1.75466e-33 
3.60214e-20 -8.37913e-22 -8.01091e-22 -3.85842e-21 -7.49175e-21 -7.16252e-21 -3.4498e-20 6.92886e-33 
3.09562e-20 -8.19922e-22 -7.01111e-22 -3.51644e-21 -6.90056e-21 -5.90063e-21 -2.95947e-20 1.72701e-33 
3.37832e-20 -1.01768e-21 -6.05671e-22 -4.39811e-21 -7.54828e-21 -4.49233e-21 -3.26212e-20 8.24779e-34 
4.33448e-20 -7.35419e-22 -3.54337e-22 -3.03302e-21 -1.01487e-20 -4.8898e-21 -4.18553e-20 3.90754e-33 
4.08219e-20 -1.27871e-21 -7.97109e-22 -5.26447e-21 -9.53262e-21 -5.94234e-21 -3.92459e-20 5.48663e-33 
3.32359e-20 -9.13517e-22 -8.19867e-22 -3.72399e-21 -7.74317e-21 -6.94938e-21 -3.15654e-20 2.96369e-33 
2.83026e-20 -8.15397e-22 -3.7666e-22 -4.43035e-21 -5.10519e-21 -2.35827e-21 -2.77383e-20 6.5746e-33 
5.79579e-20 -1.28193e-21 -7.78752e-22 -6.81435e-21 -1.06483e-20 -6.46865e-21 -5.66029e-20 -3.9994e-34 
2.60597e-20 -5.749e-22 -1.41607e-22 -2.93644e-21 -5.00135e-21 -1.23191e-21 -2.55456e-20 9.47436e-34 
4.78151e-20 -7.84763e-22 -7.91648e-22 -3.59784e-21 -9.96227e-21 -1.00497e-20 -4.56732e-20 1.64594e-32 
7.31546e-20 -1.03801e-21 -1.271e-21 -3.86001e-21 -1.81042e-20 -2.21678e-20 -6.73233e-20 -2.63926e-33 
3.78973e-20 -1.07765e-21 -9.90736e-22 -4.25179e-21 -9.08214e-21 -8.34966e-21 -3.5833e-20 1.82601e-33 
2.4464e-20 -8.85861e-22 -6.79896e-22 -4.25313e-21 -4.92843e-21 -3.78256e-21 -2.3662e-20 -4.75787e-33 
2.84671e-20 -8.47975e-22 4.67179e-22 -4.43104e-21 -5.32224e-21 2.93221e-21 -2.7811e-20 -2.61905e-33 
2.25633e-20 -7.56625e-22 1.60417e-22 -4.23885e-21 -3.96208e-21 8.40029e-22 -2.21968e-20 -3.76393e-33 
2.45786e-20 -8.56383e-22 2.82277e-22 -4.59033e-21 -4.49945e-21 1.48309e-21 -2.41177e-20 1.57204e-33 
2.59614e-20 -5.53488e-22 1.9781e-22 -2.79157e-21 -5.03695e-21 1.80015e-21 -2.54044e-20 -2.08651e-34 
3.25386e-20 -9.79074e-22 4.45317e-22 -4.54453e-21 -6.82166e-21 3.10273e-21 -3.16638e-20 3.01924e-33 
4.02468e-20 -5.90911e-22 2.97605e-22 -2.50543e-21 -9.17768e-21 4.62223e-21 -3.89128e-20 6.94396e-33 