ITEM: TIMESTEP
50
ITEM: NUMBER OF SURFS
6916
ITEM: BOX BOUNDS oo rr rr
-0.35 0.35
-0.25 0.25
-0.25 0.25
ITEM: SURFS f_save[1] f_save[2] f_save[3] f_save[4] f_save[5] f_save[6] f_save[7] f_save[8] 
7.92748 -5.94809e-05 0 0 -7.92748 0 0 0 
0 0 0 0 0 0 0 0 
0 0 0 0 0 0 0 0 
0.441375 -2.15329e-05 0.000132468 -2.21231e-06 0 0.441375 0 141.959 
0.531542 -7.57254e-05 0.000159517 -1.62318e-05 0 0.531542 0 571.525 
0.560975 -5.11605e-05 -0.000168363 4.26958e-06 0 -0.560975 0 337.743 
0.308698 -9.03892e-06 -9.26414e-05 -1.41286e-05 0 -0.308698 0 101.023 
0 0 0 0 0 0 0 0 
0 0 0 0 0 0 0 0 
0 0 0 0 0 0 0 0 
0.167926 0 0 9.82365e-05 0 0 0.167926 0 
0.173963 4.35976e-06 2.73651e-06 0.000101769 0 0 0.173963 -0.990205 
0 0 0 0 0 0 0 0 
28.0533 -6.83801e-05 0 0 -28.0533 0 0 0 
0 0 0 0 0 0 0 0 
0 0 0 0 0 0 0 0 
0 0 0 0 0 0 0 0 
0 0 0 0 0 0 0 0 
0 0 0 0 0 0 0 0 
19.2363 -4.68884e-05 0 0 -19.2363 0 0 0 
0 0 0 0 0 0 0 0 
0 0 0 0 0 0 0 0 
26.2414 -6.23234e-05 0 0 -26.2414 0 0 0 
0 0 0 0 0 0 0 0 
0 0 0 0 0 0 0 0 
0 0 0 0 0 0 0 0 
0 0 0 0 0 0 0 0 
0 0 0 0 0 0 0 0 
0 0 0 0 0 0 0 0 
19.5854 -4.77394e-05 0 0 -19.5854 0 0 0 
0 0 0 0 0 0 0 0 
0 0 0 0 0 0 0 0 
33.4318 -7.94006e-05 4.40269e-06 -1.44222e-06 -33.4318 0 0 26596.6 
0 0 0 0 0 0 0 0 
0 0 0 0 0 0 0 0 
0 0 0 0 0 0 0 0 
0 0 0 0 0 0 0 0 
0 0 0 0 0 0 0 0 
25.7035 -6.10458e-05 0 0 -25.7035 0 0 0 
54.3869 -0.000129169 0 0 -54.3869 0 0 0 
0 0 0 0 0 0 0 0 
28.4243 -6.75078e-05 0 0 -28.4243 0 0 0 
0 0 0 0 0 0 0 0 
25.0754 -5.95542e-05 0 0 -25.0754 0 0 0 
0 0 0 0 0 0 0 0 
0 0 0 0 0 0 0 0 
44.3481 -0.000108098 0 0 -44.3481 0 0 0 
8.96399 -2.18497e-05 -2.80484e-06 -1.29569e-06 -8.96399 0 0 16066.6 
0 0 0 0 0 0 0 0 
26.6747 -6.50198e-05 0 0 -26.6747 0 0 0 
27.0755 -6.59967e-05 0 0 -27.0755 0 0 0 
0 0 0 0 0 0 0 0 
0 0 0 0 0 0 0 0 
0 0 0 0 0 0 0 0 
0 0 0 0 0 0 0 0 
0 0 0 0 0 0 0 0 
28.7827 -6.83591e-05 0 0 -28.7827 0 0 0 
0 0 0 0 0 0 0 0 
0 0 0 0 0 0 0 0 
29.2539 -6.9478e-05 0 0 -29.2539 0 0 0 
0 0 0 0 0 0 0 0 
24.058 -5.86414e-05 0 0 -24.058 0 0 0 
25.3065 -6.16846e-05 0 0 -25.3065 0 0 0 
28.6473 -6.9828e-05 0 0 -28.6473 0 0 0 
0 0 0 0 0 0 0 0 
0 0 0 0 0 0 0 0 
0 0 0 0 0 0 0 0 
0 0 0 0 0 0 0 0 
0 0 0 0 0 0 0 0 
0 0 0 0 0 0 0 0 
36.6792 -8.9406e-05 0 0 -36.6792 0 0 0 
0 0 0 0 0 0 0 0 
0 0 0 0 0 0 0 0 
0 0 0 0 0 0 0 0 
0 0 0 0 0 0 0 0 
0 0 0 0 0 0 0 0 
33.5294 -8.1728e-05 -3.64064e-07 1.97925e-06 -33.5294 0 0 10911.6 
24.9146 -6.07294e-05 0 0 -24.9146 0 0 0 
11.0145 -2.61594e-05 0 0 -11.0145 0 0 0 
0 0 0 0 0 0 0 0 
0 0 0 0 0 0 0 0 
0 0 0 0 0 0 0 0 
0 0 0 0 0 0 0 0 
19.5982 -4.65459e-05 0 0 -19.5982 0 0 0 
0 0 0 0 0 0 0 0 
0 0 0 0 0 0 0 0 
0 0 0 0 0 0 0 0 
0 0 0 0 0 0 0 0 
0 0 0 0 0 0 0 0 
0 0 0 0 0 0 0 0 
0 0 0 0 0 0 0 0 
0 0 0 0 0 0 0 0 
0 0 0 0 0 0 0 0 
0 0 0 0 0 0 0 0 
26.8072 -6.53427e-05 0 0 -26.8072 0 0 0 
51.2497 -0.000124921 5.80748e-06 3.41601e-06 -51.2497 0 0 42836.3 
45.1412 -0.000107211 0 0 -45.1412 0 0 0 
0 0 0 0 0 0 0 0 
0 0 0 0 0 0 0 0 
0 0 0 0 0 0 0 0 
0 0 0 0 0 0 0 0 
44.257 -0.000105111 -1.00424e-06 1.08404e-06 -44.257 0 0 29806.2 
0 0 0 0 0 0 0 0 
0 0 0 0 0 0 0 0 
0 0 0 0 0 0 0 0 
0 0 0 0 0 0 0 0 
0 0 0 0 0 0 0 0 
0 0 0 0 0 0 0 0 
0 0 0 0 0 0 0 0 
0 0 0 0 0 0 0 0 
0 0 0 0 0 0 0 0 
0 0 0 0 0 0 0 0 
0 0 0 0 0 0 0 0 
0 0 0 0 0 0 0 0 
0 0 0 0 0 0 0 0 
0 0 0 0 0 0 0 0 
0 0 0 0 0 0 0 0 
0 0 0 0 0 0 0 0 
23.5097 -5.58354e-05 0 0 -23.5097 0 0 0 
0 0 0 0 0 0 0 0 
0 0 0 0 0 0 0 0 
0 0 0 0 0 0 0 0 
0 0 0 0 0 0 0 0 
0 0 0 0 0 0 0 0 
14.2195 -3.37715e-05 -1.56907e-06 -4.6885e-06 -14.2195 0 0 22770.3 
0 0 0 0 0 0 0 0 
0 0 0 0 0 0 0 0 
0 0 0 0 0 0 0 0 
0 0 0 0 0 0 0 0 
0 0 0 0 0 0 0 0 
0 0 0 0 0 0 0 0 
0 0 0 0 0 0 0 0 
0 0 0 0 0 0 0 0 
24.3419 -5.93334e-05 0 0 -24.3419 0 0 0 
0 0 0 0 0 0 0 0 
0 0 0 0 0 0 0 0 
0 0 0 0 0 0 0 0 
28.7619 -6.83097e-05 0 0 -28.7619 0 0 0 
0 0 0 0 0 0 0 0 
26.5066 -6.46098e-05 0 0 -26.5066 0 0 0 
0 0 0 0 0 0 0 0 
0 0 0 0 0 0 0 0 
14.6498 -3.47934e-05 1.45221e-07 7.19152e-07 -14.6498 0 0 23145.6 
0 0 0 0 0 0 0 0 
0 0 0 0 0 0 0 0 
0 0 0 0 0 0 0 0 
0 0 0 0 0 0 0 0 
0 0 0 0 0 0 0 0 
0 0 0 0 0 0 0 0 
0 0 0 0 0 0 0 0 
48.3293 -0.000117803 0 0 -48.3293 0 0 0 
32.1244 -7.83031e-05 1.018e-06 -2.12498e-06 -32.1244 0 0 23331.1 
0 0 0 0 0 0 0 0 
0 0 0 0 0 0 0 0 
0 0 0 0 0 0 0 0 
0 0 0 0 0 0 0 0 
25.8269 -6.13391e-05 0 0 -25.8269 0 0 0 
8.01986 -1.90472e-05 0 0 -8.01986 0 0 0 
0 0 0 0 0 0 0 0 
0 0 0 0 0 0 0 0 
0 0 0 0 0 0 0 0 
0 0 0 0 0 0 0 0 
0 0 0 0 0 0 0 0 
0 0 0 0 0 0 0 0 
0 0 0 0 0 0 0 0 
0 0 0 0 0 0 0 0 
0 0 0 0 0 0 0 0 
0 0 0 0 0 0 0 0 
6.88699 -1.63567e-05 3.70175e-06 -7.38268e-07 -6.88699 0 0 12872.2 
0 0 0 0 0 0 0 0 
0 0 0 0 0 0 0 0 
0 0 0 0 0 0 0 0 
0 0 0 0 0 0 0 0 
0 0 0 0 0 0 0 0 
16.6508 -3.95455e-05 0 0 -16.6508 0 0 0 
17.1331 -4.0691e-05 0 0 -17.1331 0 0 0 
0 0 0 0 0 0 0 0 
0 0 0 0 0 0 0 0 
14.0182 -3.32933e-05 -2.16602e-06 3.74085e-07 -14.0182 0 0 22618.3 
0 0 0 0 0 0 0 0 
0 0 0 0 0 0 0 0 
0 0 0 0 0 0 0 0 
0 0 0 0 0 0 0 0 
0 0 0 0 0 0 0 0 
0 0 0 0 0 0 0 0 
0 0 0 0 0 0 0 0 
28.1845 -6.69381e-05 0 0 -28.1845 0 0 0 
28.4364 -6.75363e-05 0 0 -28.4364 0 0 0 
0 0 0 0 0 0 0 0 
0 0 0 0 0 0 0 0 
0 0 0 0 0 0 0 0 
0 0 0 0 0 0 0 0 
0 0 0 0 0 0 0 0 
0 0 0 0 0 0 0 0 
50.7024 -0.000120418 0 0 -50.7024 0 0 0 
0 0 0 0 0 0 0 0 
0 0 0 0 0 0 0 0 
0 0 0 0 0 0 0 0 
0 0 0 0 0 0 0 0 
0 0 0 0 0 0 0 0 
25.2489 -5.99663e-05 0 0 -25.2489 0 0 0 
0 0 0 0 0 0 0 0 
0 0 0 0 0 0 0 0 
0 0 0 0 0 0 0 0 
0 0 0 0 0 0 0 0 
0 0 0 0 0 0 0 0 
0 0 0 0 0 0 0 0 
0 0 0 0 0 0 0 0 
0 0 0 0 0 0 0 0 
0 0 0 0 0 0 0 0 
0 0 0 0 0 0 0 0 
27.0396 -6.42188e-05 0 0 -27.0396 0 0 0 
0 0 0 0 0 0 0 0 
0 0 0 0 0 0 0 0 
28.8687 -6.8563e-05 0 0 -28.8687 0 0 0 
0 0 0 0 0 0 0 0 
0 0 0 0 0 0 0 0 
0 0 0 0 0 0 0 0 
0 0 0 0 0 0 0 0 
0 0 0 0 0 0 0 0 
0 0 0 0 0 0 0 0 
0 0 0 0 0 0 0 0 
0 0 0 0 0 0 0 0 
0 0 0 0 0 0 0 0 
0 0 0 0 0 0 0 0 
39.2233 -9.31555e-05 5.40412e-07 -8.49298e-07 -39.2233 0 0 21067.4 
30.2266 -7.17882e-05 0 0 -30.2266 0 0 0 
0 0 0 0 0 0 0 0 
0 0 0 0 0 0 0 0 
0 0 0 0 0 0 0 0 
57.4803 -0.000136516 0 0 -57.4803 0 0 0 
0 0 0 0 0 0 0 0 
0 0 0 0 0 0 0 0 
0 0 0 0 0 0 0 0 
0 0 0 0 0 0 0 0 
0 0 0 0 0 0 0 0 
0 0 0 0 0 0 0 0 
0 0 0 0 0 0 0 0 
0 0 0 0 0 0 0 0 
0 0 0 0 0 0 0 0 
0 0 0 0 0 0 0 0 
0 0 0 0 0 0 0 0 
0 0 0 0 0 0 0 0 
11.1018 -2.70608e-05 -6.46453e-06 6.66849e-06 -11.1018 0 0 18532.3 
0 0 0 0 0 0 0 0 
0 0 0 0 0 0 0 0 
23.7065 -5.63033e-05 0 0 -23.7065 0 0 0 
0 0 0 0 0 0 0 0 
0 0 0 0 0 0 0 0 
0 0 0 0 0 0 0 0 
0 0 0 0 0 0 0 0 
0 0 0 0 0 0 0 0 
0 0 0 0 0 0 0 0 
24.5565 -5.98567e-05 0 0 -24.5565 0 0 0 
0 0 0 0 0 0 0 0 
0 0 0 0 0 0 0 0 
0 0 0 0 0 0 0 0 
0 0 0 0 0 0 0 0 
0 0 0 0 0 0 0 0 
0 0 0 0 0 0 0 0 
25.6752 -6.09784e-05 0 0 -25.6752 0 0 0 
0 0 0 0 0 0 0 0 
0 0 0 0 0 0 0 0 
0 0 0 0 0 0 0 0 
0 0 0 0 0 0 0 0 
0 0 0 0 0 0 0 0 
0 0 0 0 0 0 0 0 
0 0 0 0 0 0 0 0 
0 0 0 0 0 0 0 0 
0 0 0 0 0 0 0 0 
23.3712 -5.55067e-05 0 0 -23.3712 0 0 0 
28.0566 -6.66345e-05 0 0 -28.0566 0 0 0 
0 0 0 0 0 0 0 0 
0 0 0 0 0 0 0 0 
0 0 0 0 0 0 0 0 
0 0 0 0 0 0 0 0 
0 0 0 0 0 0 0 0 
0 0 0 0 0 0 0 0 
0 0 0 0 0 0 0 0 
56.5565 -0.000134322 0 0 -56.5565 0 0 0 
0 0 0 0 0 0 0 0 
0 0 0 0 0 0 0 0 
0 0 0 0 0 0 0 0 
0 0 0 0 0 0 0 0 
26.1939 -6.22105e-05 0 0 -26.1939 0 0 0 
0 0 0 0 0 0 0 0 
0 0 0 0 0 0 0 0 
0 0 0 0 0 0 0 0 
18.0826 -4.29464e-05 0 0 -18.0826 0 0 0 
28.9213 -6.86883e-05 0 0 -28.9213 0 0 0 
0 0 0 0 0 0 0 0 
0 0 0 0 0 0 0 0 
0 0 0 0 0 0 0 0 
0 0 0 0 0 0 0 0 
0 0 0 0 0 0 0 0 
0 0 0 0 0 0 0 0 
0 0 0 0 0 0 0 0 
0 0 0 0 0 0 0 0 
0 0 0 0 0 0 0 0 
26.5174 -6.29789e-05 0 0 -26.5174 0 0 0 
0 0 0 0 0 0 0 0 
0 0 0 0 0 0 0 0 
314.863 -3.93579e-05 -1.52776e-06 -2.70571e-06 -314.863 0 0 513504 
0 0 0 0 0 0 0 0 
15.5642 -3.6965e-05 -1.3221e-06 2.23909e-06 -15.5642 0 0 23840.6 
0 0 0 0 0 0 0 0 
0 0 0 0 0 0 0 0 
26.127 -6.20517e-05 0 0 -26.127 0 0 0 
0 0 0 0 0 0 0 0 
0 0 0 0 0 0 0 0 
18.8983 -4.48835e-05 0 0 -18.8983 0 0 0 
18.6356 -4.42596e-05 0 0 -18.6356 0 0 0 
0 0 0 0 0 0 0 0 
0 0 0 0 0 0 0 0 
0 0 0 0 0 0 0 0 
0 0 0 0 0 0 0 0 
25.2058 -5.98639e-05 0 0 -25.2058 0 0 0 
0 0 0 0 0 0 0 0 
0 0 0 0 0 0 0 0 
0 0 0 0 0 0 0 0 
0 0 0 0 0 0 0 0 
56.6837 -0.000134624 0 0 -56.6837 0 0 0 
0 0 0 0 0 0 0 0 
0 0 0 0 0 0 0 0 
0 0 0 0 0 0 0 0 
25.8814 -6.14684e-05 0 0 -25.8814 0 0 0 
0 0 0 0 0 0 0 0 
0 0 0 0 0 0 0 0 
0 0 0 0 0 0 0 0 
0 0 0 0 0 0 0 0 
0 0 0 0 0 0 0 0 
0 0 0 0 0 0 0 0 
27.5984 -6.72716e-05 0 0 -27.5984 0 0 0 
0 0 0 0 0 0 0 0 
7.42886 -0.0036619 1.0229e-05 -2.02314e-05 -7.42886 0 0 1802.28 
7.6914 -0.000374956 0 0 -7.6914 0 0 0 
0 0 0 0 0 0 0 0 
7.50926 -0.00035669 4.22861e-07 5.93569e-06 -7.50926 0 0 1205.78 
0 0 0 0 0 0 0 0 
5.21324 -0.000247629 4.68415e-06 -1.07519e-05 -5.21324 0 0 784.329 
0 0 0 0 0 0 0 0 
9.92783 -0.000471572 3.43292e-06 1.55552e-06 -9.92783 0 0 1093.25 
25.861 -6.46525e-05 0 0 -25.861 0 0 0 
9.99331 -0.000474682 0 0 -9.99331 0 0 0 
2.00754 -5.01887e-06 0 0 -2.00754 0 0 0 
11.0014 -0.000522566 5.63944e-06 4.73042e-06 -11.0014 0 0 2627.35 
0 0 0 0 0 0 0 0 
6.70419 -0.000318449 0 0 -6.70419 0 0 0 
23.0934 -5.77339e-05 0 0 -23.0934 0 0 2.17359e-11 
4.58897 -0.000223712 -8.29287e-07 4.00607e-06 -4.58897 0 0 2256.54 
7.46043 -0.00325544 -4.09682e-06 2.15329e-06 -7.46043 0 0 1397.8 
7.83347 -0.000546078 7.65983e-08 -1.14611e-06 -7.83347 0 0 237.769 
9.95193 -0.000855867 -7.12264e-06 -2.00084e-06 -9.95193 0 0 2471.08 
8.44371 -0.000726157 -5.01608e-06 -4.26719e-06 -8.44371 0 0 1366 
9.17821 -0.000447438 -8.61156e-06 1.61709e-06 -9.17821 0 0 3151.84 
0 0 0 0 0 0 0 0 
6.69097 -0.000317821 0 0 -6.69097 0 0 0 
0 0 0 0 0 0 0 0 
4.26298 -0.000202491 -6.76663e-07 9.90674e-07 -4.26298 0 0 1106.99 
0 0 0 0 0 0 0 0 
13.393 -0.000636169 8.55878e-07 -5.00289e-06 -13.393 0 0 1827.31 
24.9408 -6.23521e-05 0 0 -24.9408 0 0 0 
5.77494 -0.00027431 0 0 -5.77494 0 0 0 
0 0 0 0 0 0 0 0 
13.6169 -0.000646805 -2.45236e-06 -6.13802e-06 -13.6169 0 0 1132.09 
0 0 0 0 0 0 0 0 
6.33714 -0.000301014 -1.63121e-06 3.81852e-06 -6.33714 0 0 1557.58 
0 0 0 0 0 0 0 0 
4.44044 -0.000216472 -5.20023e-08 4.90808e-06 -4.44044 0 0 1157.28 
8.96227 -0.000436911 1.8026e-05 -9.82051e-06 -8.96227 0 0 1000.26 
9.47838 -0.00467217 3.0349e-06 -5.42893e-06 -9.47838 0 0 1846.69 
5.83168 -0.000501523 -3.42193e-06 -2.14494e-06 -5.83168 0 0 644.915 
5.99304 -0.000515402 1.33166e-06 -1.79055e-06 -5.99304 0 0 631.707 
9.37072 -0.000123151 1.60518e-06 -1.06249e-06 -9.37072 0 0 8429.83 
7.26733 -0.000354282 4.64876e-06 -5.21791e-06 -7.26733 0 0 1266.53 
0 0 0 0 0 0 0 0 
7.84997 -0.000372873 -9.42632e-06 -3.66591e-06 -7.84997 0 0 5490.93 
14.0465 -3.51163e-05 -2.78729e-06 4.0709e-07 -14.0465 0 0 22105.2 
4.81774 -0.000228843 3.07218e-06 1.1604e-06 -4.81774 0 0 3480.52 
0 0 0 0 0 0 0 0 
6.6924 -0.000317889 0 0 -6.6924 0 0 0 
0 0 0 0 0 0 0 0 
11.1541 -0.000529819 0 0 -11.1541 0 0 0 
0 0 0 0 0 0 0 0 
13.0672 -0.000620693 -1.006e-05 -3.63236e-06 -13.0672 0 0 4842.26 
0 0 0 0 0 0 0 0 
10.4512 -0.000496432 -1.19697e-06 -1.02379e-06 -10.4512 0 0 2406.33 
0 0 0 0 0 0 0 0 
3.99802 -0.000194904 0 0 -3.99802 0 0 0 
8.26228 -0.00407272 -1.20172e-05 -9.3132e-06 -8.26228 0 0 753.202 
0 0 0 0 0 0 0 0 
8.7018 -0.000413336 0 0 -8.7018 0 0 0 
0 0 0 0 0 0 0 0 
7.99558 -0.00037979 0 0 -7.99558 0 0 0 
23.5563 -5.8891e-05 0 0 -23.5563 0 0 1.93209e-11 
9.39861 -0.000446434 8.10483e-06 -5.40717e-07 -9.39861 0 0 3699.14 
0 0 0 0 0 0 0 0 
11.5607 -0.000549134 0 0 -11.5607 0 0 0 
25.9276 -6.48192e-05 0 0 -25.9276 0 0 0 
4.41614 -0.000209767 -2.50189e-06 2.63316e-07 -4.41614 0 0 465.953 
0 0 0 0 0 0 0 0 
4.5914 -0.000218091 2.71415e-06 5.43494e-07 -4.5914 0 0 1401.76 
20.2752 -5.06883e-05 0 0 -20.2752 0 0 1.69057e-11 
9.46904 -0.000461616 3.99397e-06 -1.86545e-06 -9.46904 0 0 1175.04 
0.0129359 0 7.5675e-06 0 0 0.0129359 0 0 
0.0751573 0 2.19835e-05 0 0 0.0751573 0 0 
0 0 0 0 0 0 0 0 
0 0 0 0 0 0 0 0 
0 0 0 0 0 0 0 0 
0 0 0 0 0 0 0 0 
0 0 0 0 0 0 0 0 
0 0 0 0 0 0 0 0 
0 0 0 0 0 0 0 0 
0 0 0 0 0 0 0 0 
0 0 0 0 0 0 0 0 
0 0 0 0 0 0 0 0 
0 0 0 0 0 0 0 0 
0 0 0 0 0 0 0 0 
0 0 0 0 0 0 0 0 
0 0 0 0 0 0 0 0 
0 0 0 0 0 0 0 0 
0 0 0 0 0 0 0 0 
0 0 0 0 0 0 0 0 
0 0 0 0 0 0 0 0 
0 0 0 0 0 0 0 0 
0 0 0 0 0 0 0 0 
0 0 0 0 0 0 0 0 
0 0 0 0 0 0 0 0 
0 0 0 0 0 0 0 0 
0 0 0 0 0 0 0 0 
0 0 0 0 0 0 0 0 
0 0 0 0 0 0 0 0 
0 0 0 0 0 0 0 0 
0 0 0 0 0 0 0 0 
0 0 0 0 0 0 0 0 
0 0 0 0 0 0 0 0 
0 0 0 0 0 0 0 0 
0 0 0 0 0 0 0 0 
0 0 0 0 0 0 0 0 
0 0 0 0 0 0 0 0 
0 0 0 0 0 0 0 0 
0 0 0 0 0 0 0 0 
0 0 0 0 0 0 0 0 
0 0 0 0 0 0 0 0 
0 0 0 0 0 0 0 0 
0 0 0 0 0 0 0 0 
0 0 0 0 0 0 0 0 
0 0 0 0 0 0 0 0 
0 0 0 0 0 0 0 0 
0 0 0 0 0 0 0 0 
0 0 0 0 0 0 0 0 
0 0 0 0 0 0 0 0 
0 0 0 0 0 0 0 0 
0 0 0 0 0 0 0 0 
0 0 0 0 0 0 0 0 
0 0 0 0 0 0 0 0 
0 0 0 0 0 0 0 0 
0 0 0 0 0 0 0 0 
0 0 0 0 0 0 0 0 
0 0 0 0 0 0 0 0 
0 0 0 0 0 0 0 0 
0 0 0 0 0 0 0 0 
0 0 0 0 0 0 0 0 
0 0 0 0 0 0 0 0 
0 0 0 0 0 0 0 0 
0 0 0 0 0 0 0 0 
0 0 0 0 0 0 0 0 
0 0 0 0 0 0 0 0 
0 0 0 0 0 0 0 0 
0 0 0 0 0 0 0 0 
0 0 0 0 0 0 0 0 
0 0 0 0 0 0 0 0 
0 0 0 0 0 0 0 0 
0 0 0 0 0 0 0 0 
0 0 0 0 0 0 0 0 
0 0 0 0 0 0 0 0 
0 0 0 0 0 0 0 0 
0 0 0 0 0 0 0 0 
0 0 0 0 0 0 0 0 
0 0 0 0 0 0 0 0 
0 0 0 0 0 0 0 0 
0 0 0 0 0 0 0 0 
0 0 0 0 0 0 0 0 
0 0 0 0 0 0 0 0 
0 0 0 0 0 0 0 0 
0 0 0 0 0 0 0 0 
0 0 0 0 0 0 0 0 
0 0 0 0 0 0 0 0 
0 0 0 0 0 0 0 0 
0 0 0 0 0 0 0 0 
0 0 0 0 0 0 0 0 
0 0 0 0 0 0 0 0 
0 0 0 0 0 0 0 0 
0 0 0 0 0 0 0 0 
0 0 0 0 0 0 0 0 
0 0 0 0 0 0 0 0 
0 0 0 0 0 0 0 0 
0 0 0 0 0 0 0 0 
0 0 0 0 0 0 0 0 
0 0 0 0 0 0 0 0 
0 0 0 0 0 0 0 0 
0 0 0 0 0 0 0 0 
0 0 0 0 0 0 0 0 
0 0 0 0 0 0 0 0 
0 0 0 0 0 0 0 0 
0 0 0 0 0 0 0 0 
0 0 0 0 0 0 0 0 
0 0 0 0 0 0 0 0 
0 0 0 0 0 0 0 0 
0 0 0 0 0 0 0 0 
0 0 0 0 0 0 0 0 
0 0 0 0 0 0 0 0 
0 0 0 0 0 0 0 0 
0 0 0 0 0 0 0 0 
0 0 0 0 0 0 0 0 
0 0 0 0 0 0 0 0 
0 0 0 0 0 0 0 0 
0 0 0 0 0 0 0 0 
0 0 0 0 0 0 0 0 
0 0 0 0 0 0 0 0 
0 0 0 0 0 0 0 0 
0 0 0 0 0 0 0 0 
0 0 0 0 0 0 0 0 
0 0 0 0 0 0 0 0 
0 0 0 0 0 0 0 0 
0 0 0 0 0 0 0 0 
0 0 0 0 0 0 0 0 
0 0 0 0 0 0 0 0 
0 0 0 0 0 0 0 0 
0 0 0 0 0 0 0 0 
0 0 0 0 0 0 0 0 
0 0 0 0 0 0 0 0 
0 0 0 0 0 0 0 0 
0 0 0 0 0 0 0 0 
0 0 0 0 0 0 0 0 
0 0 0 0 0 0 0 0 
0 0 0 0 0 0 0 0 
0 0 0 0 0 0 0 0 
0 0 0 0 0 0 0 0 
0 0 0 0 0 0 0 0 
0 0 0 0 0 0 0 0 
25.736 6.1123e-05 0 0 25.736 0 0 0 
0 0 0 0 0 0 0 0 
0 0 0 0 0 0 0 0 
0 0 0 0 0 0 0 0 
0 0 0 0 0 0 0 0 
0 0 0 0 0 0 0 0 
0 0 0 0 0 0 0 0 
0 0 0 0 0 0 0 0 
0 0 0 0 0 0 0 0 
0 0 0 0 0 0 0 0 
0 0 0 0 0 0 0 0 
0 0 0 0 0 0 0 0 
0 0 0 0 0 0 0 0 
0 0 0 0 0 0 0 0 
0 0 0 0 0 0 0 0 
0 0 0 0 0 0 0 0 
0 0 0 0 0 0 0 0 
0 0 0 0 0 0 0 0 
0 0 0 0 0 0 0 0 
0 0 0 0 0 0 0 0 
0 0 0 0 0 0 0 0 
0 0 0 0 0 0 0 0 
0 0 0 0 0 0 0 0 
0 0 0 0 0 0 0 0 
0 0 0 0 0 0 0 0 
0 0 0 0 0 0 0 0 
0 0 0 0 0 0 0 0 
0 0 0 0 0 0 0 0 
0 0 0 0 0 0 0 0 
0 0 0 0 0 0 0 0 
0 0 0 0 0 0 0 0 
0 0 0 0 0 0 0 0 
0 0 0 0 0 0 0 0 
0 0 0 0 0 0 0 0 
0 0 0 0 0 0 0 0 
0 0 0 0 0 0 0 0 
0 0 0 0 0 0 0 0 
0 0 0 0 0 0 0 0 
0 0 0 0 0 0 0 0 
0 0 0 0 0 0 0 0 
0 0 0 0 0 0 0 0 
0 0 0 0 0 0 0 0 
0 0 0 0 0 0 0 0 
0 0 0 0 0 0 0 0 
0 0 0 0 0 0 0 0 
0 0 0 0 0 0 0 0 
0 0 0 0 0 0 0 0 
0 0 0 0 0 0 0 0 
0 0 0 0 0 0 0 0 
0 0 0 0 0 0 0 0 
0 0 0 0 0 0 0 0 
0 0 0 0 0 0 0 0 
0 0 0 0 0 0 0 0 
0 0 0 0 0 0 0 0 
0 0 0 0 0 0 0 0 
0 0 0 0 0 0 0 0 
0 0 0 0 0 0 0 0 
0 0 0 0 0 0 0 0 
0 0 0 0 0 0 0 0 
0 0 0 0 0 0 0 0 
0 0 0 0 0 0 0 0 
0 0 0 0 0 0 0 0 
0 0 0 0 0 0 0 0 
0 0 0 0 0 0 0 0 
0 0 0 0 0 0 0 0 
0 0 0 0 0 0 0 0 
0 0 0 0 0 0 0 0 
0 0 0 0 0 0 0 0 
0 0 0 0 0 0 0 0 
0 0 0 0 0 0 0 0 
0 0 0 0 0 0 0 0 
0 0 0 0 0 0 0 0 
0 0 0 0 0 0 0 0 
0 0 0 0 0 0 0 0 
0 0 0 0 0 0 0 0 
0 0 0 0 0 0 0 0 
0 0 0 0 0 0 0 0 
0 0 0 0 0 0 0 0 
0 0 0 0 0 0 0 0 
0 0 0 0 0 0 0 0 
0 0 0 0 0 0 0 0 
0 0 0 0 0 0 0 0 
0 0 0 0 0 0 0 0 
0 0 0 0 0 0 0 0 
0 0 0 0 0 0 0 0 
0 0 0 0 0 0 0 0 
0 0 0 0 0 0 0 0 
0 0 0 0 0 0 0 0 
0 0 0 0 0 0 0 0 
0 0 0 0 0 0 0 0 
0 0 0 0 0 0 0 0 
0 0 0 0 0 0 0 0 
0 0 0 0 0 0 0 0 
0 0 0 0 0 0 0 0 
0 0 0 0 0 0 0 0 
0 0 0 0 0 0 0 0 
0 0 0 0 0 0 0 0 
0 0 0 0 0 0 0 0 
0 0 0 0 0 0 0 0 
0 0 0 0 0 0 0 0 
0 0 0 0 0 0 0 0 
0 0 0 0 0 0 0 0 
0 0 0 0 0 0 0 0 
0 0 0 0 0 0 0 0 
0 0 0 0 0 0 0 0 
0 0 0 0 0 0 0 0 
0 0 0 0 0 0 0 0 
0 0 0 0 0 0 0 0 
0 0 0 0 0 0 0 0 
0 0 0 0 0 0 0 0 
0 0 0 0 0 0 0 0 
0 0 0 0 0 0 0 0 
0 0 0 0 0 0 0 0 
0 0 0 0 0 0 0 0 
0 0 0 0 0 0 0 0 
0 0 0 0 0 0 0 0 
0 0 0 0 0 0 0 0 
0 0 0 0 0 0 0 0 
0 0 0 0 0 0 0 0 
0 0 0 0 0 0 0 0 
0 0 0 0 0 0 0 0 
0 0 0 0 0 0 0 0 
0 0 0 0 0 0 0 0 
0 0 0 0 0 0 0 0 
0 0 0 0 0 0 0 0 
0 0 0 0 0 0 0 0 
0 0 0 0 0 0 0 0 
0 0 0 0 0 0 0 0 
0 0 0 0 0 0 0 0 
0 0 0 0 0 0 0 0 
0 0 0 0 0 0 0 0 
0 0 0 0 0 0 0 0 
0 0 0 0 0 0 0 0 
0 0 0 0 0 0 0 0 
0 0 0 0 0 0 0 0 
0 0 0 0 0 0 0 0 
0 0 0 0 0 0 0 0 
0 0 0 0 0 0 0 0 
0 0 0 0 0 0 0 0 
0 0 0 0 0 0 0 0 
0 0 0 0 0 0 0 0 
0 0 0 0 0 0 0 0 
0 0 0 0 0 0 0 0 
0 0 0 0 0 0 0 0 
0 0 0 0 0 0 0 0 
0 0 0 0 0 0 0 0 
0 0 0 0 0 0 0 0 
0 0 0 0 0 0 0 0 
0 0 0 0 0 0 0 0 
0 0 0 0 0 0 0 0 
0 0 0 0 0 0 0 0 
0 0 0 0 0 0 0 0 
0 0 0 0 0 0 0 0 
0 0 0 0 0 0 0 0 
0 0 0 0 0 0 0 0 
0 0 0 0 0 0 0 0 
0 0 0 0 0 0 0 0 
0 0 0 0 0 0 0 0 
0 0 0 0 0 0 0 0 
0 0 0 0 0 0 0 0 
0 0 0 0 0 0 0 0 
0 0 0 0 0 0 0 0 
0 0 0 0 0 0 0 0 
0 0 0 0 0 0 0 0 
0 0 0 0 0 0 0 0 
0 0 0 0 0 0 0 0 
0 0 0 0 0 0 0 0 
0 0 0 0 0 0 0 0 
0 0 0 0 0 0 0 0 
0 0 0 0 0 0 0 0 
0 0 0 0 0 0 0 0 
0 0 0 0 0 0 0 0 
0 0 0 0 0 0 0 0 
0 0 0 0 0 0 0 0 
0 0 0 0 0 0 0 0 
0 0 0 0 0 0 0 0 
0 0 0 0 0 0 0 0 
0 0 0 0 0 0 0 0 
0 0 0 0 0 0 0 0 
0 0 0 0 0 0 0 0 
0 0 0 0 0 0 0 0 
0 0 0 0 0 0 0 0 
0 0 0 0 0 0 0 0 
0 0 0 0 0 0 0 0 
0 0 0 0 0 0 0 0 
27.1691 6.62245e-05 0 0 27.1691 0 0 0 
0 0 0 0 0 0 0 0 
0 0 0 0 0 0 0 0 
0 0 0 0 0 0 0 0 
0 0 0 0 0 0 0 0 
0 0 0 0 0 0 0 0 
0 0 0 0 0 0 0 0 
0.0165253 0 -9.66732e-06 0 0 -0.0165253 0 0 
0.0160013 0 -9.36076e-06 0 0 -0.0160013 0 0 
2.18266 -0.00026488 0.000262958 -0.000269254 -1.09133 1.3366 -1.3366 352.148 
2.05578 -0.000285307 0.000234358 -0.000237674 -1.02789 1.2589 -1.25891 791.523 
0.0264619 -0.000288035 0.000233184 0.000249569 0 0.0187114 0.0187114 37.3936 
0.0134126 -0.000482822 0.000268055 0.000275386 3.18171e-10 0.00948414 0.00948414 30.0867 
0.0149381 -0.000107898 5.95366e-05 7.14867e-05 0 0.0105629 0.0105629 30.477 
0.0253177 -0.000273918 0.000374395 8.61257e-06 0 0.0253177 0 32.9896 
0.0137902 -0.000195237 0.000203928 -1.62382e-06 0 0.0137902 0 22.4818 
0.0228118 -0.000221083 7.67571e-06 0.000337338 0 0 0.0228118 25.7482 
0.0138295 -0.000263362 7.03315e-06 0.000204509 0 0 0.0138295 31.2375 
0.0184967 -0.000649127 0.000381555 0.000367882 0 0.0130792 0.0130792 40.0294 
0.0173226 -0.000158404 0.000153316 0.000162707 -2.52885e-10 0.012249 0.012249 22.4052 
0.0158848 -6.55976e-05 6.85328e-05 7.07934e-05 0 0.0112322 0.0112322 19.1051 
1.17136 -0.000149787 -0.000138376 0.000141012 -0.585682 -0.717311 0.717311 316.111 
2.5262 -0.000327378 -0.00029652 0.000302479 -1.2631 -1.54696 1.54698 769.631 
0.0141055 -0.000416295 -0.000280679 -0.000290837 0 -0.0099741 -0.0099741 24.557 
0.0182651 -0.000222338 -0.00017709 -0.000156127 9.62288e-10 -0.0129154 -0.0129154 28.6594 
0.0198437 -0.000118591 -8.92495e-05 -8.48007e-05 0 -0.0140316 -0.0140316 34.088 
0.0236627 -0.000156358 -0.000349921 7.63502e-07 0 -0.0236627 0 18.7405 
0.0149234 -0.000216174 -0.000220685 -5.58908e-06 0 -0.0149234 0 23.7623 
0.0204091 -0.000243294 -8.06773e-06 -0.000301807 0 0 -0.0204091 30.9779 
0.0132574 -0.000175246 1.31378e-06 -0.000196049 0 0 -0.0132574 21.5091 
0.0227655 -0.000200384 -0.000209004 -0.000206314 0 -0.0160976 -0.0160976 27.0549 
0.0123753 -0.000515369 -0.000254571 -0.000246843 -8.13449e-11 -0.00875067 -0.00875067 31.8779 
0.0216478 -0.000125863 -9.24134e-05 -9.74607e-05 0 -0.0153073 -0.0153073 35.6548 
0.304023 -5.67234e-05 6.3436e-06 -0.000177853 0 0 -0.304023 274.245 
0.101309 -1.34807e-05 -8.03742e-07 -5.9266e-05 0 0 -0.101309 13.1422 
0.132461 -3.78835e-05 -7.55025e-05 -8.19957e-06 0 -0.132461 0 113.275 
0.106526 -2.98253e-05 -6.07196e-05 -4.24266e-06 0 -0.106526 0 93.5174 
0.277806 -3.00479e-05 -7.87783e-06 0.000162516 0 0 0.277806 84.3108 
0.151654 -1.22198e-05 -4.20203e-06 8.87177e-05 0 0 0.151654 64.3669 
0.0390769 -2.84027e-05 2.22738e-05 1.36741e-06 0 0.0390769 0 86.3856 
0.161453 -6.15915e-05 9.2028e-05 -1.63024e-05 0 0.161453 0 176.516 
0.0153865 0 8.77028e-06 0 0 0.0153865 0 9.93057e-16 
0.0284015 -3.72201e-05 1.61889e-05 6.41379e-07 0 0.0284015 0 115.769 
0.0474275 -2.57221e-05 -1.24571e-05 -2.70337e-05 0 0 -0.0474275 108.094 
0.0445833 -2.21598e-05 -2.14779e-06 -2.54125e-05 0 0 -0.0445833 65.3024 
0.0173189 -4.88951e-06 -9.87176e-06 -7.20171e-07 0 -0.0173189 0 1.64217 
0.00422898 3.69215e-06 -2.41052e-06 -5.5004e-06 0 -0.00422898 0 1.90637 
0.028965 3.99893e-07 2.43427e-06 1.65101e-05 0 -5.67898e-09 0.028965 -1.45504 
0.034764 0 -3.88508e-12 1.98155e-05 0 -6.81593e-09 0.034764 0 
0.0577789 0 3.2934e-05 0 0 0.0577789 0 1.05926e-14 
0.0398903 -5.38888e-05 2.27375e-05 -5.55754e-06 0 0.0398903 0 247.675 
0.0196853 0 0 -1.12206e-05 0 0 -0.0196853 0 
0.0179135 0 0 -1.02107e-05 0 0 -0.0179135 0 
0.0461397 0 -2.62996e-05 0 0 -0.0461397 0 1.05926e-14 
0.00466635 0 -2.65982e-06 0 0 -0.00466635 0 0 
0.0302979 0 0 1.72698e-05 0 0 0.0302979 1.98611e-15 
0.00535056 0 0 3.04982e-06 0 0 0.00535056 0 
0.017942 0 -1.0227e-05 0 0 -0.017942 0 0 
0.0673034 -5.85015e-05 -3.83629e-05 -9.97522e-07 0 -0.0673034 0 179.027 
0.118242 -3.45934e-05 4.07609e-07 6.73981e-05 0 0 0.118242 94.6972 
0.079203 -6.5058e-05 -2.45181e-06 4.51457e-05 0 0 0.079203 199.62 
0.0716329 0 4.08308e-05 0 0 0.0716329 0 0 
0.00940969 0 5.36352e-06 0 0 0.00940969 0 0 
0.0386083 -1.54775e-05 4.34974e-06 -2.20067e-05 0 0 -0.0386083 69.3444 
0.112449 0 0 -6.40958e-05 0 0 -0.112449 1.58889e-14 
0.021555 -2.67462e-05 1.22863e-05 -1.41453e-05 0 0.021555 0 105.406 
0.0296019 0 1.68731e-05 0 0 0.0296019 0 0 
0.0254531 -3.56529e-05 -9.19502e-07 -1.45083e-05 0 0 -0.0254531 89.8254 
0.0261903 0 0 -1.49285e-05 0 0 -0.0261903 0 
0.05175 -9.71073e-06 -2.94975e-05 -7.85967e-06 0 -0.05175 0 39.8938 
0.00641826 -3.0218e-05 -3.65841e-06 -1.8577e-06 0 -0.00641826 0 87.0266 
0.0381573 0 0 2.17497e-05 0 0 0.0381573 1.58889e-14 
0.0625108 0 0 3.56312e-05 0 0 0.0625108 3.31019e-14 
0.156018 0 8.89302e-05 0 0 0.156018 0 0 
0.0114372 0 6.51918e-06 0 0 0.0114372 0 0 
0.0737724 -3.13685e-05 5.48572e-07 -4.20503e-05 0 0 -0.0737724 87.5769 
0.101667 -4.67299e-05 1.41264e-05 -5.79505e-05 0 0 -0.101667 168.215 
0.134701 -6.35908e-06 -7.67797e-05 -1.35383e-05 0 -0.134701 0 115.012 
0.0724765 0 -4.13116e-05 0 0 -0.0724765 0 0 
0.16939 -3.47187e-05 -4.21392e-06 9.65523e-05 0 0 0.16939 103.834 
0.070056 0 0 3.99319e-05 0 0 0.070056 5.2963e-15 
0.10118 -1.51963e-05 5.71017e-06 -5.76728e-05 0 0 -0.10118 33.6384 
0.0182918 0 0 -1.04264e-05 0 0 -0.0182918 1.48959e-15 
0.0327522 0 -1.86688e-05 0 0 -0.0327522 0 8.27548e-16 
0.0411224 -3.16684e-06 -2.34398e-05 -4.88951e-07 0 -0.0411224 0 -0.79499 
0.0469209 -6.33642e-05 3.78428e-06 2.67449e-05 0 0 0.0469209 190.077 
0.0118297 -2.49483e-05 1.8868e-06 6.74295e-06 0 0 0.0118297 71.9396 
0.0543918 0 3.10033e-05 0 0 0.0543918 0 1.58889e-14 
0.039131 4.24832e-06 2.23047e-05 2.43382e-06 0 0.039131 0 -1.045 
0.0414795 0 2.36433e-05 0 0 0.0414795 0 3.17778e-14 
0.0212228 0 1.2097e-05 0 0 0.0212228 0 9.93057e-16 
0.0373175 0 0 -2.1271e-05 0 0 -0.0373175 0 
0.0122665 7.63064e-07 5.01218e-07 -6.99188e-06 0 0 -0.0122665 -0.720702 
0.0327495 0 -1.86672e-05 0 0 -0.0327495 0 0 
0.0298637 -6.35308e-05 -1.70223e-05 8.72345e-07 0 -0.0298637 0 191.965 
0.0313541 0 0 1.78718e-05 0 0 0.0313541 0 
0.0350296 0 0 1.99669e-05 0 0 0.0350296 0 
0.0750618 -3.43531e-05 -3.90166e-06 -4.27853e-05 0 0 -0.0750618 110.529 
0.0276466 0 0 -1.57586e-05 0 0 -0.0276466 3.64121e-15 
0.107459 0 -6.12514e-05 0 0 -0.107459 0 0 
0.0224285 0 -1.27842e-05 0 0 -0.0224285 0 0 
0.0192438 0 0 1.0969e-05 0 0 0.0192438 0 
0.0831103 -6.57135e-05 3.25234e-06 4.73729e-05 0 0 0.0831103 192.006 
0.0796189 -3.45869e-05 4.53828e-05 7.74482e-07 0 0.0796189 1.56103e-08 86.7261 
0.039687 0 2.26216e-05 4.43526e-12 0 0.039687 7.78117e-09 -2.11852e-14 
0.0179234 -2.43355e-05 -4.13266e-06 -1.02164e-05 0 0 -0.0179234 80.485 
0.0429647 -2.96381e-05 9.46509e-07 -2.44899e-05 0 0 -0.0429647 87.4628 
0.0196731 3.28459e-06 -1.12137e-05 2.99199e-06 0 -0.0196731 -3.85738e-09 -1.38677 
0.000347933 0 -1.98322e-07 -3.88857e-14 0 -0.000347933 -6.82206e-11 0 
0.0701896 0 0 4.00081e-05 0 0 0.0701896 1.29097e-14 
0.0145982 -1.2138e-10 4.60672e-07 8.321e-06 0 0 0.0145982 -0.501427 
0.00536359 -5.73198e-06 3.05725e-06 6.00231e-06 0 0.00536359 0 2.51836 
0 0 0 0 0 0 0 0 
0.0248509 -3.51396e-05 9.12569e-07 1.45378e-05 0 0 0.0248509 102.763 
0.00506381 0 0 2.96233e-06 0 0 0.00506381 0 
0.256807 -3.03265e-05 0.00014638 2.25888e-06 0 0.256807 0 94.3844 
0 0 0 0 0 0 0 0 
0.0202645 -8.20492e-06 9.03236e-06 -1.18547e-05 0 0 -0.0202645 4.90069 
0 0 0 0 0 0 0 0 
0.0296942 0 -1.69257e-05 0 0 -0.0296942 0 0 
0.257028 -2.64431e-05 -0.000146506 -1.72427e-07 0 -0.257028 0 79.545 
0.0246987 -3.44168e-05 -1.40458e-06 1.44487e-05 0 0 0.0246987 101.335 
0.0148512 0 0 8.68793e-06 0 0 0.0148512 0 
0.042121 0 2.40089e-05 0 0 0.042121 0 0 
0 0 0 0 0 0 0 0 
0.0171926 0 0 -1.00577e-05 0 0 -0.0171926 0 
0.0148512 0 0 -8.68793e-06 0 0 -0.0148512 0 
0.0160568 0 -9.15237e-06 0 0 -0.0160568 0 0 
0.0203247 2.81145e-06 -1.15851e-05 4.27894e-06 0 -0.0203247 0 1.95475 
0.0324817 0 0 -1.85145e-05 0 0 -0.0324817 0 
0 0 0 0 0 0 0 0 
0.0921543 -3.62451e-05 -5.25279e-05 -1.91429e-05 0 -0.0921543 0 125.106 
0.0254026 0 -1.44795e-05 0 0 -0.0254026 0 0 
0.0328482 0 0 1.87235e-05 0 0 0.0328482 0 
0.0106943 0 0 6.09576e-06 0 0 0.0106943 0 
0 0 0 0 0 0 0 0 
0.0403368 -3.11449e-05 2.2992e-05 -4.60549e-06 0 0.0403368 0 109.519 
0.00478797 0 0 2.80096e-06 0 0 0.00478797 0 
0.00250884 -3.0408e-05 -3.71557e-06 1.46767e-06 0 0 0.00250884 84.9247 
0.0406655 0 2.37893e-05 0 0 0.0406655 0 0 
0.0181567 0 1.06217e-05 0 0 0.0181567 0 0 
0.0151853 0 0 -8.88339e-06 0 0 -0.0151853 0 
0.0103817 0 0 -3.03663e-06 0 0 -0.0103817 0 
0.0204409 0 0 -5.97895e-06 0 0 -0.0204409 0 
0.0354907 -2.08583e-05 -2.07621e-05 1.58907e-06 0 -0.0354907 0 65.5088 
0.0179765 0 -5.25813e-06 0 0 -0.0179765 0 0 
0.0157593 0 -4.60961e-06 0 0 -0.0157593 0 0 
0.101559 -7.81087e-05 9.30686e-06 5.94121e-05 0 0 0.101559 242.833 
0.042046 0 0 2.45969e-05 0 0 0.042046 0 
0.0486399 -5.7249e-07 2.77248e-05 1.532e-06 0 0.0486399 0 0.252311 
0.0104317 0 5.94609e-06 0 0 0.0104317 0 0 
0.137541 1.26367e-06 -9.08081e-07 -8.04617e-05 0 0 -0.137541 1.0736 
0.0328038 0 0 -1.91902e-05 0 0 -0.0328038 0 
0.0199057 0 -1.13462e-05 0 0 -0.0199057 0 0 
0.0557285 -4.24067e-05 -3.17653e-05 -4.00073e-07 0 -0.0557285 0 125.268 
0.0661761 -6.081e-06 4.09317e-06 -3.77204e-05 0 0 -0.0661761 18.0635 
0 0 0 0 0 0 0 0 
0.051653 0 -3.0217e-05 0 0 -0.051653 0 0 
0.0270074 0 -1.57993e-05 0 0 -0.0270074 0 0 
0.0198807 0 0 1.1332e-05 0 0 0.0198807 0 
0.0229971 -3.41317e-05 -4.59594e-06 1.31083e-05 0 0 0.0229971 91.9933 
0.0243276 -6.61162e-05 1.42316e-05 -2.54727e-06 0 0.0243276 0 192.74 
0.0284652 0 1.66521e-05 0 0 0.0284652 0 0 
0.00737302 -3.56099e-05 4.20262e-06 -8.63081e-07 0 0.00737302 0 111.728 
0.0203209 -3.64934e-05 1.15829e-05 -2.11753e-07 0 0.0203209 0 110.554 
0.0277206 0 0 -1.58008e-05 0 0 -0.0277206 0 
0.0406912 -1.98264e-05 -2.77629e-06 -2.3194e-05 0 0 -0.0406912 57.0501 
0.036887 1.49673e-06 -2.10256e-05 -3.26537e-06 0 -0.036887 0 3.67545 
0.0243124 1.24168e-05 -1.38581e-05 -1.83113e-05 0 -0.0243124 0 50.1138 
0.0170507 0 0 9.71888e-06 0 0 0.0170507 0 
0.0701841 0 0 4.00049e-05 0 0 0.0701841 0 
0.0080217 0 4.57237e-06 0 0 0.0080217 0 6.62038e-16 
0.0165261 -4.69288e-05 9.4199e-06 1.70786e-06 0 0.0165261 0 122.348 
0.0204616 0 0 -1.16631e-05 0 0 -0.0204616 0 
0.033362 0 0 -1.90164e-05 0 0 -0.033362 0 
0.0219495 0 -1.25112e-05 0 0 -0.0219495 0 1.98611e-15 
0.0173974 -3.36125e-05 -9.91654e-06 3.5258e-06 0 -0.0173974 0 105.928 
0.0266792 0 0 1.52071e-05 0 0 0.0266792 0 
0.0146504 -2.69869e-05 9.80754e-07 8.35074e-06 0 0 0.0146504 84.8322 
0.0368789 0 0 -2.1021e-05 0 0 -0.0368789 5.62732e-15 
0.040415 -3.81742e-05 3.15632e-06 -2.30366e-05 0 0 -0.040415 127.971 
0.0472563 4.40287e-06 -2.69361e-05 8.41051e-08 0 -0.0472563 0 0.923799 
0.0104857 0 -5.97682e-06 0 0 -0.0104857 0 2.64815e-15 
0.0456271 0 0 2.60074e-05 0 0 0.0456271 6.62038e-15 
0.0305235 -2.045e-05 -4.31097e-06 1.73984e-05 0 0 0.0305235 69.9014 
0.0290643 -2.56573e-05 1.65667e-05 3.09898e-06 0 0.0290643 0 77.8088 
0.024986 0 1.4242e-05 0 0 0.024986 0 2.31713e-15 
0.0014486 0 8.25701e-07 0 0 0.0014486 0 0 
0.0206262 0 1.17569e-05 0 0 0.0206262 0 0 
0.0108989 0 0 -6.21237e-06 0 0 -0.0108989 0 
0.0174225 -2.73084e-05 1.17705e-07 -9.93085e-06 0 0 -0.0174225 82.2116 
0.00980142 0 -5.58681e-06 0 0 -0.00980142 0 0 
0.0266255 -4.19062e-07 -1.51765e-05 3.10618e-06 0 -0.0266255 0 0.369601 
0.0158995 0 0 9.06269e-06 0 0 0.0158995 0 
0.0387354 -3.2293e-06 1.83476e-06 2.20792e-05 0 0 0.0387354 0.864748 
0.0954156 -2.66284e-05 -1.05708e-05 -5.43869e-05 0 0 -0.0954156 68.3268 
0.0148486 -6.00254e-07 1.50318e-06 -8.46372e-06 0 0 -0.0148486 2.73455 
0.0173118 -7.15814e-05 -9.86775e-06 -2.55779e-06 0 -0.0173118 0 201.934 
0.0544903 -1.24916e-05 -3.10595e-05 3.29687e-06 0 -0.0544903 0 47.8935 
0.0859653 -3.36625e-06 1.24615e-06 4.90002e-05 0 0 0.0859653 17.6533 
0.0203578 0 0 1.1604e-05 0 0 0.0203578 1.32408e-15 
0.0515578 0 2.93879e-05 0 0 0.0515578 0 0 
0.0294297 7.29287e-07 1.6775e-05 -1.3686e-07 0 0.0294297 0 -1.43997 
0.209504 0 0.000119417 0 0 0.209504 0 0 
0.00871309 0 4.96646e-06 0 0 0.00871309 0 0 
0.0575015 0 0 -3.27759e-05 0 0 -0.0575015 0 
0 0 0 0 0 0 0 0 
0.238142 -6.07709e-05 -0.000135741 -5.06406e-06 0 -0.238142 0 198.859 
0.014368 0 -8.18978e-06 0 0 -0.014368 0 0 
0.0329646 -3.24002e-05 8.51046e-07 1.87898e-05 0 0 0.0329646 92.6708 
0.0336688 0 0 1.91912e-05 0 0 0.0336688 0 
0.0404051 -4.10798e-05 1.58757e-05 -2.3637e-05 0 0 -0.0404051 141.304 
0.0578202 -0.000113344 7.75765e-08 -3.38248e-05 0 0 -0.0578202 332.319 
0.0164154 0 -9.35676e-06 0 0 -0.0164154 0 0 
0.111044 0 -6.32948e-05 0 0 -0.111044 0 0 
0.0912003 -3.40561e-06 2.67912e-07 5.33522e-05 0 0 0.0912003 1.96266 
0.0138011 0 0 8.07364e-06 0 0 0.0138011 0 
0.0562657 3.6984e-06 3.20714e-05 1.86883e-06 0 0.0562657 0 -0.0926889 
0.129298 0 7.36997e-05 0 0 0.129298 0 0 
0.14426 -2.25576e-05 -8.22282e-05 -3.14064e-07 0 -0.14426 0 91.7037 
0.0164499 0 -9.37642e-06 0 0 -0.0164499 0 0 
0.0845253 -1.73501e-05 9.03545e-06 4.81794e-05 0 0 0.0845253 130.398 
0.0342027 -1.03235e-06 -5.70477e-06 1.94955e-05 0 0 0.0342027 6.71687 