ITEM: TIMESTEP
205
ITEM: NUMBER OF SURFS
6916
ITEM: BOX BOUNDS oo rr rr
-20 20
-20 20
-20 20
ITEM: SURFS f_save[1] f_save[2] f_save[3] f_save[4] f_save[5] f_save[6] f_save[7] f_save[8] 
2.50155e-18 -1.87695e-19 0 0 -2.50155e-18 0 0 0 
1.90913e-19 0 0 -5.72934e-19 0 0 -1.90913e-19 0 
2.02638e-22 1.52031e-23 0 0 2.02638e-22 0 0 0 
1.43797e-18 -3.50505e-20 0 0 -1.43797e-18 0 0 1.32869e-30 
1.37108e-18 -1.71386e-21 0 0 -1.37108e-18 0 0 0 
1.31337e-18 -1.64172e-21 0 0 -1.31337e-18 0 0 0 
1.39189e-18 -1.73987e-21 0 0 -1.39189e-18 0 0 0 
1.40657e-18 -3.42852e-20 0 0 -1.40657e-18 0 0 1.29588e-30 
1.41099e-18 -3.35109e-20 0 0 -1.41099e-18 0 0 0 
1.45355e-18 -3.45217e-20 0 0 -1.45355e-18 0 0 0 
1.54101e-18 -3.65991e-20 0 0 -1.54101e-18 0 0 0 
1.52589e-18 -3.62399e-20 0 0 -1.52589e-18 0 0 0 
1.48478e-18 -3.61915e-20 0 0 -1.48478e-18 0 0 0 
1.47811e-18 -3.51052e-20 0 0 -1.47811e-18 0 0 0 
1.43769e-18 -3.41451e-20 0 0 -1.43769e-18 0 0 0 
1.44538e-18 -3.52313e-20 0 0 -1.44538e-18 0 0 0 
1.4479e-18 -3.52925e-20 0 0 -1.4479e-18 0 0 1.33616e-30 
1.41808e-18 -3.36796e-20 0 0 -1.41808e-18 0 0 1.31415e-30 
1.4328e-18 -3.40289e-20 0 0 -1.4328e-18 0 0 0 
1.40983e-18 -3.43645e-20 0 0 -1.40983e-18 0 0 1.29887e-30 
1.40864e-18 -3.34553e-20 0 0 -1.40864e-18 0 0 0 
1.48036e-18 -3.51585e-20 0 0 -1.48036e-18 0 0 0 
1.44538e-18 -3.52311e-20 0 0 -1.44538e-18 0 0 0 
1.46595e-18 -3.48164e-20 0 0 -1.46595e-18 0 0 0 
1.50093e-18 -3.56472e-20 0 0 -1.50093e-18 0 0 0 
1.47238e-18 -3.49691e-20 0 0 -1.47238e-18 0 0 0 
1.64682e-18 -2.05852e-21 0 0 -1.64682e-18 0 0 0 
1.44565e-18 -3.43341e-20 0 0 -1.44565e-18 0 0 0 
1.41716e-18 -3.36575e-20 0 0 -1.41716e-18 0 0 0 
1.60775e-18 -2.00968e-21 0 0 -1.60775e-18 0 0 0 
1.37747e-18 -3.27148e-20 0 0 -1.37747e-18 0 0 0 
1.41384e-18 -3.35786e-20 0 0 -1.41384e-18 0 0 0 
1.57866e-18 -1.97334e-21 0 0 -1.57866e-18 0 0 0 
1.49307e-18 -3.63936e-20 0 0 -1.49307e-18 0 0 1.37359e-30 
1.43009e-18 -3.39648e-20 0 0 -1.43009e-18 0 0 0 
1.47556e-18 -1.84445e-21 0 0 -1.47556e-18 0 0 0 
1.45963e-18 -3.55785e-20 0 0 -1.45963e-18 0 0 1.3422e-30 
1.41214e-18 -3.35385e-20 0 0 -1.41214e-18 0 0 0 
1.41093e-18 -1.76367e-21 0 0 -1.41093e-18 0 0 0 
1.38986e-18 -3.30093e-20 0 0 -1.38986e-18 0 0 0 
1.39309e-18 -3.39565e-20 0 0 -1.39309e-18 0 0 0 
1.80764e-18 -2.25956e-21 0 0 -1.80764e-18 0 0 0 
1.38933e-18 -3.29967e-20 0 0 -1.38933e-18 0 0 0 
1.44259e-18 -3.51632e-20 0 0 -1.44259e-18 0 0 0 
1.40057e-18 -1.75071e-21 0 0 -1.40057e-18 0 0 0 
1.4889e-18 -3.53616e-20 0 0 -1.4889e-18 0 0 0 
1.42026e-18 -3.37312e-20 0 0 -1.42026e-18 0 0 0 
1.66601e-18 -2.08252e-21 0 0 -1.66601e-18 0 0 0 
1.27783e-18 -1.59729e-21 0 0 -1.27783e-18 0 0 0 
1.39751e-18 -1.7469e-21 0 0 -1.39751e-18 0 0 0 
1.43349e-18 -3.40455e-20 0 0 -1.43349e-18 0 0 1.32409e-30 
1.44333e-18 -3.42792e-20 0 0 -1.44333e-18 0 0 0 
1.42202e-18 -3.37732e-20 0 0 -1.42202e-18 0 0 1.30814e-30 
1.59619e-18 -1.99524e-21 0 0 -1.59619e-18 0 0 0 
1.43196e-18 -3.40089e-20 0 0 -1.43196e-18 0 0 0 
1.53659e-18 -3.64941e-20 0 0 -1.53659e-18 0 0 0 
1.56036e-18 -3.70585e-20 0 0 -1.56036e-18 0 0 0 
1.55527e-18 -1.94409e-21 0 0 -1.55527e-18 0 0 0 
1.52028e-18 -3.61066e-20 0 0 -1.52028e-18 0 0 0 
1.49479e-18 -3.55012e-20 0 0 -1.49479e-18 0 0 0 
1.44439e-18 -3.43042e-20 0 0 -1.44439e-18 0 0 0 
1.74025e-18 -2.17533e-21 0 0 -1.74025e-18 0 0 0 
1.42975e-18 -3.39568e-20 0 0 -1.42975e-18 0 0 0 
1.37133e-18 -3.34261e-20 0 0 -1.37133e-18 0 0 1.26847e-30 
1.64052e-18 -2.05067e-21 0 0 -1.64052e-18 0 0 0 
1.35465e-18 -3.2173e-20 0 0 -1.35465e-18 0 0 0 
1.46459e-18 -3.47841e-20 0 0 -1.46459e-18 0 0 0 
1.58777e-18 -1.98471e-21 0 0 -1.58777e-18 0 0 0 
1.41238e-18 -3.35441e-20 0 0 -1.41238e-18 0 0 0 
1.42263e-18 -3.37874e-20 0 0 -1.42263e-18 0 0 0 
1.57831e-18 -1.97289e-21 0 0 -1.57831e-18 0 0 0 
1.44348e-18 -3.42826e-20 0 0 -1.44348e-18 0 0 0 
1.39318e-18 -3.3088e-20 0 0 -1.39318e-18 0 0 0 
1.42457e-18 -1.78072e-21 0 0 -1.42457e-18 0 0 0 
1.67837e-18 -2.09797e-21 0 0 -1.67837e-18 0 0 0 
1.45731e-18 -3.4611e-20 0 0 -1.45731e-18 0 0 0 
1.48238e-18 -3.52066e-20 0 0 -1.48238e-18 0 0 0 
1.3997e-18 -1.74962e-21 0 0 -1.3997e-18 0 0 0 
1.41788e-18 -3.36746e-20 0 0 -1.41788e-18 0 0 0 
1.41479e-18 -3.36013e-20 0 0 -1.41479e-18 0 0 0 
1.49749e-18 -3.55654e-20 0 0 -1.49749e-18 0 0 0 
1.47282e-18 -3.49795e-20 0 0 -1.47282e-18 0 0 0 
1.51203e-18 -3.59108e-20 0 0 -1.51203e-18 0 0 0 
1.47158e-18 -3.58699e-20 0 0 -1.47158e-18 0 0 0 
1.45665e-18 -3.64163e-20 0 0 -1.45665e-18 0 0 0 
1.45352e-18 -3.63379e-20 0 0 -1.45352e-18 0 0 0 
1.39477e-18 -3.48692e-20 0 0 -1.39477e-18 0 0 0 
1.37581e-18 -3.43954e-20 0 0 -1.37581e-18 0 0 0 
1.43907e-18 -1.2376e-18 0 0 -1.43907e-18 0 0 1.32751e-30 
1.44373e-18 -6.85771e-19 0 0 -1.44373e-18 0 0 1.33052e-30 
1.44131e-18 -6.84621e-19 0 0 -1.44131e-18 0 0 0 
1.43372e-18 -6.81018e-19 0 0 -1.43372e-18 0 0 0 
1.43667e-18 -7.00377e-19 0 0 -1.43667e-18 0 0 0 
1.44714e-18 -1.24454e-18 0 0 -1.44714e-18 0 0 1.33419e-30 
1.4496e-18 -6.88558e-19 0 0 -1.4496e-18 0 0 0 
1.44172e-18 -6.84819e-19 0 0 -1.44172e-18 0 0 0 
1.44917e-18 -6.88354e-19 0 0 -1.44917e-18 0 0 0 
1.44297e-18 -7.0345e-19 0 0 -1.44297e-18 0 0 0 
1.46265e-18 -3.65663e-20 0 0 -1.46265e-18 0 0 1.34526e-30 
1.38046e-18 -3.45115e-20 0 0 -1.38046e-18 0 0 0 
1.52312e-18 -3.8078e-20 0 0 -1.52312e-18 0 0 1.40297e-30 
3.9139e-21 0 0 -2.28963e-20 0 0 -3.9139e-21 0 
3.34921e-20 4.18652e-23 0 0 3.34921e-20 0 0 0 
2.71092e-20 6.43845e-22 0 0 2.71092e-20 0 0 0 
0 0 0 0 0 0 0 0 
2.30602e-20 5.4768e-22 0 0 2.30602e-20 0 0 0 
4.50033e-20 1.06883e-21 0 0 4.50033e-20 0 0 0 
1.34432e-20 3.19276e-22 0 0 1.34432e-20 0 0 0 
4.60896e-20 1.09463e-21 0 0 4.60896e-20 0 0 0 
9.60217e-21 2.28051e-22 0 0 9.60217e-21 0 0 0 
4.59602e-20 1.09156e-21 0 0 4.59602e-20 0 0 0 
5.27015e-20 6.423e-22 0 0 5.27015e-20 0 0 0 
8.77723e-21 2.0846e-22 0 0 8.77723e-21 0 0 7.91137e-33 
2.0094e-20 4.77234e-22 0 0 2.0094e-20 0 0 0 
2.62878e-20 6.24335e-22 0 0 2.62878e-20 0 0 0 
5.74137e-20 1.36358e-21 0 0 5.74137e-20 0 0 0 
1.84878e-20 4.39084e-22 0 0 1.84878e-20 0 0 0 
3.19995e-20 7.59987e-22 0 0 3.19995e-20 0 0 0 
3.88562e-20 9.22835e-22 0 0 3.88562e-20 0 0 0 
2.5076e-20 3.13451e-23 0 0 2.5076e-20 0 0 0 
3.18606e-20 7.5669e-22 0 0 3.18606e-20 0 0 0 
2.1665e-20 5.14542e-22 0 0 2.1665e-20 0 0 0 
2.44856e-20 3.0607e-23 0 0 2.44856e-20 0 0 0 
1.84269e-20 4.37638e-22 0 0 1.84269e-20 0 0 0 
2.45002e-20 5.8188e-22 0 0 2.45002e-20 0 0 0 
1.7126e-20 2.14075e-23 0 0 1.7126e-20 0 0 0 
1.18447e-20 2.81311e-22 0 0 1.18447e-20 0 0 0 
1.03782e-20 2.46483e-22 0 0 1.03782e-20 0 0 0 
2.47272e-20 3.0909e-23 0 0 2.47272e-20 0 0 0 
6.49371e-21 8.11716e-24 0 0 6.49371e-21 0 0 0 
1.66502e-20 3.95441e-22 0 0 1.66502e-20 0 0 0 
1.31281e-20 3.11791e-22 0 0 1.31281e-20 0 0 0 
2.65782e-20 6.31232e-22 0 0 2.65782e-20 0 0 0 
2.60109e-20 6.17759e-22 0 0 2.60109e-20 0 0 0 
0 0 0 0 0 0 0 0 
1.45032e-20 3.44451e-22 0 0 1.45032e-20 0 0 0 
1.62547e-20 3.86049e-22 0 0 1.62547e-20 0 0 0 
7.23715e-21 9.04645e-24 0 0 7.23715e-21 0 0 0 
4.02026e-20 5.02533e-23 0 0 4.02026e-20 0 0 0 
2.65298e-20 6.30083e-22 0 0 2.65298e-20 0 0 0 
1.94952e-20 4.63011e-22 0 0 1.94952e-20 0 0 0 
2.46692e-20 5.85894e-22 0 0 2.46692e-20 0 0 0 
2.0952e-20 2.61901e-23 0 0 2.0952e-20 0 0 0 
1.65322e-20 3.9264e-22 0 0 1.65322e-20 0 0 0 
1.99728e-20 4.74355e-22 0 0 1.99728e-20 0 0 0 
4.42615e-20 5.53269e-23 0 0 4.42615e-20 0 0 0 
4.78051e-20 1.13537e-21 0 0 4.78051e-20 0 0 0 
2.71184e-20 6.44062e-22 0 0 2.71184e-20 0 0 0 
3.68742e-20 8.75763e-22 0 0 3.68742e-20 0 0 0 
9.66025e-21 1.20753e-23 0 0 9.66025e-21 0 0 0 
7.69588e-21 1.87588e-22 0 0 7.69588e-21 0 0 0 
2.3287e-20 2.91089e-23 0 0 2.3287e-20 0 0 0 
3.05958e-20 7.45771e-22 0 0 3.05958e-20 0 0 2.81362e-32 
4.3952e-20 1.04386e-21 0 0 4.3952e-20 0 0 0 
3.94459e-20 9.61493e-22 0 0 3.94459e-20 0 0 0 
5.0081e-20 1.22072e-21 0 0 5.0081e-20 0 0 4.67812e-32 
2.24121e-20 5.3229e-22 0 0 2.24121e-20 0 0 0 
0 0 0 0 0 0 0 0 
1.08836e-20 2.65289e-22 0 0 1.08836e-20 0 0 0 
7.93584e-21 9.91988e-24 0 0 7.93584e-21 0 0 0 
9.04193e-21 1.13025e-23 0 0 9.04193e-21 0 0 0 
3.63055e-20 4.5382e-23 0 0 3.63055e-20 0 0 0 
6.33554e-20 7.91945e-23 0 0 6.33554e-20 0 0 0 
0 0 0 0 0 0 0 0 
6.60587e-21 8.2574e-24 0 0 6.60587e-21 0 0 0 
2.22202e-20 5.41618e-22 0 0 2.22202e-20 0 0 0 
3.3468e-20 7.94867e-22 0 0 3.3468e-20 0 0 0 
3.69231e-20 4.61539e-23 0 0 3.69231e-20 0 0 0 
2.74426e-20 6.68913e-22 0 0 2.74426e-20 0 0 0 
3.20227e-20 7.60542e-22 0 0 3.20227e-20 0 0 0 
3.96947e-20 4.96185e-23 0 0 3.96947e-20 0 0 0 
2.76109e-20 6.73018e-22 0 0 2.76109e-20 0 0 0 
1.25662e-20 2.98449e-22 0 0 1.25662e-20 0 0 1.13231e-32 
1.17764e-20 2.87051e-22 0 0 1.17764e-20 0 0 0 
1.16648e-20 2.7704e-22 0 0 1.16648e-20 0 0 1.07545e-32 
1.89129e-20 4.49184e-22 0 0 1.89129e-20 0 0 0 
5.19454e-20 1.23371e-21 0 0 5.19454e-20 0 0 0 
3.91346e-20 9.2945e-22 0 0 3.91346e-20 0 0 0 
1.36894e-20 3.25125e-22 0 0 1.36894e-20 0 0 0 
1.61079e-20 3.82565e-22 0 0 1.61079e-20 0 0 1.44382e-32 
3.11043e-20 7.58166e-22 0 0 3.11043e-20 0 0 2.87143e-32 
1.34328e-20 3.27425e-22 0 0 1.34328e-20 0 0 0 
1.14901e-19 7.18134e-23 0 0 1.14901e-19 0 0 0 
3.00511e-20 3.66248e-22 0 0 3.00511e-20 0 0 0 
3.48686e-19 -3.66117e-19 -4.484e-19 -4.484e-19 -1.74343e-19 -2.13525e-19 -2.13525e-19 -1.17222e-31 
3.61112e-21 0 0 -5.34008e-19 0 0 -3.61112e-21 0 
2.45397e-21 0 4.9714e-19 -4.9714e-19 0 1.73522e-21 -1.73522e-21 -1.27139e-34 
3.48923e-19 -3.66367e-19 4.48706e-19 4.48706e-19 -1.74462e-19 2.13671e-19 2.13671e-19 -1.17774e-31 
3.63038e-21 0 0 5.36856e-19 0 0 3.63038e-21 0 
2.96464e-21 0 -2.70425e-19 2.70425e-19 0 -2.09632e-21 2.09632e-21 1.87816e-34 
4.23892e-21 0 -2.47977e-20 0 0 -4.23892e-21 0 0 
4.18191e-21 0 2.44642e-20 0 0 4.18191e-21 0 0 
3.82034e-21 0 0 -2.17759e-20 0 0 -3.82034e-21 0 
3.9434e-21 0 0 2.24774e-20 0 0 3.9434e-21 0 
3.95433e-21 0 0 -2.25397e-20 0 0 -3.95433e-21 0 
3.96784e-21 0 0 2.26167e-20 0 0 3.96784e-21 0 
4.13209e-21 0 0 2.35529e-20 0 0 4.13209e-21 0 
4.03477e-21 0 0 -2.29982e-20 0 0 -4.03477e-21 0 
3.81914e-21 0 0 -2.17691e-20 0 0 -3.81914e-21 0 
3.806e-21 0 0 2.16942e-20 0 0 3.806e-21 0 
3.95483e-21 0 0 -2.25425e-20 0 0 -3.95483e-21 0 
3.91867e-21 0 0 2.23364e-20 0 0 3.91867e-21 0 
4.20869e-21 0 -2.39895e-20 0 0 -4.20869e-21 0 0 
4.00591e-21 0 2.28337e-20 0 0 4.00591e-21 0 0 
4.30744e-21 0 0 -2.45524e-20 0 0 -4.30744e-21 0 
4.43e-21 0 0 2.5251e-20 0 0 4.43e-21 0 
4.30396e-21 0 -2.45326e-20 0 0 -4.30396e-21 0 0 
4.30615e-21 0 2.4545e-20 0 0 4.30615e-21 0 0 
4.03948e-21 0 -2.3025e-20 0 0 -4.03948e-21 0 0 
4.1488e-21 0 2.36481e-20 0 0 4.1488e-21 0 0 
4.29298e-21 0 2.51139e-20 0 0 4.29298e-21 0 0 
4.28408e-21 0 -2.50619e-20 0 0 -4.28408e-21 0 0 
4.14272e-21 0 2.42349e-20 0 0 4.14272e-21 0 0 
4.12596e-21 0 -2.41368e-20 0 0 -4.12596e-21 0 0 
4.09784e-21 0 -2.33577e-20 0 0 -4.09784e-21 0 0 
3.88974e-21 0 2.21715e-20 0 0 3.88974e-21 0 0 
3.84682e-21 0 2.25039e-20 0 0 3.84682e-21 0 0 
3.90458e-21 0 -1.14209e-20 0 0 -3.90458e-21 0 0 
3.83327e-21 0 0 1.12123e-20 0 0 3.83327e-21 0 
4.95628e-21 0 0 -2.82508e-20 0 0 -4.95628e-21 0 
4.78653e-21 0 0 2.72832e-20 0 0 4.78653e-21 0 
4.17507e-21 0 0 2.44242e-20 0 0 4.17507e-21 0 
4.07025e-21 0 0 -2.38109e-20 0 0 -4.07025e-21 0 
4.0984e-21 0 -2.33609e-20 0 0 -4.0984e-21 0 0 
4.06768e-21 0 2.31858e-20 0 0 4.06768e-21 0 0 
4.45301e-21 0 -2.53821e-20 0 0 -4.45301e-21 0 0 
4.33323e-21 0 2.46994e-20 0 0 4.33323e-21 0 0 
4.13851e-21 0 0 2.35895e-20 0 0 4.13851e-21 0 
4.18323e-21 0 0 -2.38444e-20 0 0 -4.18323e-21 0 
4.43033e-21 0 -2.52529e-20 0 0 -4.43033e-21 0 0 
4.32717e-21 0 2.46649e-20 0 0 4.32717e-21 0 0 
4.17043e-21 0 0 2.37714e-20 0 0 4.17043e-21 0 
4.25045e-21 0 0 -2.42276e-20 0 0 -4.25045e-21 0 
4.05497e-21 0 -2.31133e-20 0 0 -4.05497e-21 0 0 
4.04706e-21 0 2.30682e-20 0 0 4.04706e-21 0 0 
4.47193e-21 0 0 2.549e-20 0 0 4.47193e-21 0 
4.64105e-21 0 0 -2.6454e-20 0 0 -4.64105e-21 0 
4.31065e-21 0 2.45707e-20 0 0 4.31065e-21 0 0 
4.27524e-21 0 -2.43689e-20 0 0 -4.27524e-21 0 0 
4.02571e-21 0 2.29465e-20 0 0 4.02571e-21 0 0 
3.95047e-21 0 -2.25177e-20 0 0 -3.95047e-21 0 0 
4.42764e-21 0 0 -2.52376e-20 0 0 -4.42764e-21 0 
4.41002e-21 0 0 2.51371e-20 0 0 4.41002e-21 0 
4.33597e-21 0 0 2.4715e-20 0 0 4.33597e-21 0 
4.2252e-21 0 0 -2.40836e-20 0 0 -4.2252e-21 0 
4.90778e-21 0 0 2.79743e-20 0 0 4.90778e-21 0 
4.39441e-21 0 0 -2.50482e-20 0 0 -4.39441e-21 0 
4.44015e-21 0 -2.53089e-20 0 0 -4.44015e-21 0 0 
4.31338e-21 0 2.45863e-20 0 0 4.31338e-21 0 0 
4.22989e-21 0 -2.41104e-20 0 0 -4.22989e-21 0 0 
4.1228e-21 0 2.35e-20 0 0 4.1228e-21 0 0 
3.80065e-21 0 2.22338e-20 0 0 3.80065e-21 0 0 
3.75288e-21 0 0 -2.19544e-20 0 0 -3.75288e-21 0 
4.05905e-21 0 -2.37454e-20 0 0 -4.05905e-21 0 0 
4.07584e-21 0 2.38437e-20 0 0 4.07584e-21 0 0 
4.40206e-21 0 2.5752e-20 0 0 4.40206e-21 0 0 
4.31907e-21 0 -2.52665e-20 0 0 -4.31907e-21 0 0 
4.09122e-21 0 0 -2.39336e-20 0 0 -4.09122e-21 0 
4.16093e-21 0 0 2.43414e-20 0 0 4.16093e-21 0 
4.13192e-21 0 0 2.41718e-20 0 0 4.13192e-21 0 
4.01803e-21 0 0 -2.35055e-20 0 0 -4.01803e-21 0 
4.46863e-21 0 -2.54712e-20 0 0 -4.46863e-21 0 0 
4.80759e-21 0 2.74032e-20 0 0 4.80759e-21 0 0 
4.22727e-21 0 0 -2.47295e-20 0 0 -4.22727e-21 0 
4.30492e-21 0 0 2.51838e-20 0 0 4.30492e-21 0 
3.7711e-21 0 -1.10305e-20 0 0 -3.7711e-21 0 0 
4.15407e-21 0 -2.43013e-20 0 0 -4.15407e-21 0 0 
4.15776e-21 0 2.43229e-20 0 0 4.15776e-21 0 0 
4.04972e-21 0 -2.36908e-20 0 0 -4.04972e-21 0 0 
4.04611e-21 0 2.36698e-20 0 0 4.04611e-21 0 0 
4.16083e-21 0 -2.37167e-20 0 0 -4.16083e-21 0 0 
4.30538e-21 0 2.45407e-20 0 0 4.30538e-21 0 0 
4.17861e-21 0 0 -2.44448e-20 0 0 -4.17861e-21 0 
4.1639e-21 0 0 2.43588e-20 0 0 4.1639e-21 0 
4.59843e-21 0 2.62111e-20 0 0 4.59843e-21 0 0 
4.47761e-21 0 -2.55223e-20 0 0 -4.47761e-21 0 0 
3.9997e-21 0 0 2.27983e-20 0 0 3.9997e-21 0 
3.97791e-21 0 0 -2.26741e-20 0 0 -3.97791e-21 0 
3.79498e-21 0 0 2.22006e-20 0 0 3.79498e-21 0 
3.88646e-21 0 1.13679e-20 0 0 3.88646e-21 0 0 
4.41009e-21 0 -2.51375e-20 0 0 -4.41009e-21 0 0 
4.26831e-21 0 2.43294e-20 0 0 4.26831e-21 0 0 
4.07455e-21 0 2.32249e-20 0 0 4.07455e-21 0 0 
4.10024e-21 0 -2.33714e-20 0 0 -4.10024e-21 0 0 
3.92045e-21 0 2.23466e-20 0 0 3.92045e-21 0 0 
4.03737e-21 0 -2.3013e-20 0 0 -4.03737e-21 0 0 
4.03988e-21 0 0 -2.30273e-20 0 0 -4.03988e-21 0 
4.0213e-21 0 0 2.29214e-20 0 0 4.0213e-21 0 
4.63686e-21 0 2.64301e-20 0 0 4.63686e-21 0 0 
4.52321e-21 0 -2.57823e-20 0 0 -4.52321e-21 0 0 
4.03559e-21 0 0 -2.30029e-20 0 0 -4.03559e-21 0 
4.02242e-21 0 0 2.29278e-20 0 0 4.02242e-21 0 
3.96726e-21 0 2.26134e-20 0 0 3.96726e-21 0 0 
4.03577e-21 0 -2.30039e-20 0 0 -4.03577e-21 0 0 
4.28462e-21 0 -2.44223e-20 0 0 -4.28462e-21 0 0 
4.09e-21 0 2.3313e-20 0 0 4.09e-21 0 0 
4.03523e-21 0 0 -2.30008e-20 0 0 -4.03523e-21 0 
3.97144e-21 0 0 2.26372e-20 0 0 3.97144e-21 0 
4.12545e-21 0 0 -2.35151e-20 0 0 -4.12545e-21 0 
4.1569e-21 0 0 2.36943e-20 0 0 4.1569e-21 0 
3.8328e-21 0 0 2.18469e-20 0 0 3.8328e-21 0 
3.90827e-21 0 0 -2.22771e-20 0 0 -3.90827e-21 0 
3.93501e-21 0 -2.24295e-20 0 0 -3.93501e-21 0 0 
3.94636e-21 0 2.24943e-20 0 0 3.94636e-21 0 0 
3.72951e-21 0 0 2.12582e-20 0 0 3.72951e-21 0 
3.84926e-21 0 0 -2.19408e-20 0 0 -3.84926e-21 0 
4.07718e-21 0 0 -2.32399e-20 0 0 -4.07718e-21 0 
4.32279e-21 0 0 2.46399e-20 0 0 4.32279e-21 0 
4.11626e-21 0 2.34627e-20 0 0 4.11626e-21 0 0 
4.10375e-21 0 -2.33914e-20 0 0 -4.10375e-21 0 0 
3.98359e-21 0 -2.27064e-20 0 0 -3.98359e-21 0 0 
4.00262e-21 0 2.28149e-20 0 0 4.00262e-21 0 0 
4.05818e-21 0 0 2.31316e-20 0 0 4.05818e-21 0 
4.05314e-21 0 0 -2.31029e-20 0 0 -4.05314e-21 0 
4.18759e-21 0 2.38692e-20 0 0 4.18759e-21 0 0 
4.30791e-21 0 -2.45551e-20 0 0 -4.30791e-21 0 0 
4.05547e-21 0 0 2.31162e-20 0 0 4.05547e-21 0 
4.04735e-21 0 0 -2.30699e-20 0 0 -4.04735e-21 0 
4.53911e-21 -6.15214e-24 0 -3.23412e-21 -8.63456e-24 0 -4.5391e-21 -1.23615e-34 
1.16817e-20 -1.4321e-22 -4.81197e-23 -2.15215e-21 -7.75421e-22 -2.60549e-22 -1.1653e-20 1.49427e-34 
7.55875e-21 -5.41773e-23 -2.38329e-23 -1.39798e-21 -2.92671e-22 -1.28747e-22 -7.55198e-21 4.09183e-34 
1.34273e-20 -1.65355e-22 -1.10622e-22 -2.42987e-21 -9.10688e-22 -6.09247e-22 -1.33825e-20 -1.29031e-33 
5.10888e-21 -6.08018e-25 -1.82705e-27 -1.27722e-21 -2.43207e-24 -7.3082e-27 -5.10888e-21 -1.81789e-33 
5.38219e-21 -7.62518e-24 -3.99872e-23 -1.29279e-21 -3.17298e-23 -1.66394e-22 -5.37953e-21 -5.37535e-35 
4.92429e-21 -8.70499e-24 -2.75439e-23 -7.93802e-22 -5.39649e-23 -1.70753e-22 -4.92103e-21 -2.14764e-34 
4.8637e-21 -1.58638e-23 -3.82575e-23 -8.78838e-22 -8.76965e-23 -2.11492e-22 -4.85831e-21 1.33084e-34 
7.85596e-21 -5.54819e-23 -2.477e-23 -1.45294e-21 -2.99725e-22 -1.33813e-22 -7.8491e-21 9.29405e-34 
5.99645e-21 -3.35226e-23 -5.6722e-23 -1.07843e-21 -1.86051e-22 -3.14808e-22 -5.98529e-21 -1.51861e-33 
7.85537e-21 -7.50772e-23 -5.7406e-23 -1.42755e-21 -4.12225e-22 -3.15197e-22 -7.83822e-21 4.1267e-34 
3.95649e-21 -6.16195e-24 -1.49872e-23 -1.29391e-21 -1.88404e-23 -4.58238e-23 -3.95618e-21 -3.75218e-34 
5.72034e-21 -1.65848e-23 -1.0666e-23 -9.42969e-22 -1.00587e-22 -6.46894e-23 -5.71909e-21 3.34753e-34 
6.22939e-21 -8.56282e-24 -2.95791e-23 -7.46404e-22 -7.14034e-23 -2.46653e-22 -6.2241e-21 -7.83409e-34 
3.94503e-21 -6.84525e-24 -1.11334e-23 -6.44264e-22 -4.1907e-23 -6.81593e-23 -3.94422e-21 1.94114e-34 
5.77802e-21 -1.83264e-24 0 -1.08338e-22 -9.77268e-23 0 -5.77719e-21 8.14097e-34 
5.51999e-21 -1.78389e-23 2.89468e-23 -1.00995e-21 -9.74454e-23 1.58122e-22 -5.51687e-21 -1.01035e-33 
4.88467e-21 -1.78999e-23 0 -1.74016e-21 -5.02426e-23 0 -4.88441e-21 2.70292e-34 
5.68079e-21 -7.24077e-25 1.82296e-23 -1.3685e-21 -3.00545e-24 7.56664e-23 -5.68029e-21 8.84706e-34 
5.02955e-21 -7.12558e-24 3.73672e-23 -1.20808e-21 -2.96509e-23 1.55492e-22 -5.02706e-21 -1.78364e-34 
9.15985e-21 -8.76476e-23 7.54642e-23 -1.65762e-21 -4.83159e-22 4.15997e-22 -9.13763e-21 4.40205e-34 
6.41158e-21 -4.53399e-23 2.34277e-23 -1.18367e-21 -2.45364e-22 1.26783e-22 -6.40563e-21 -4.00376e-34 
7.68588e-21 -6.65038e-23 8.42513e-23 -1.37457e-21 -3.70726e-22 4.6966e-22 -7.66255e-21 1.17508e-33 
5.40499e-21 -2.70307e-23 3.40847e-23 -9.8585e-22 -1.48054e-22 1.8669e-22 -5.39974e-21 -1.3186e-34 
5.83477e-21 -1.13574e-23 3.26367e-23 -9.40574e-22 -7.04073e-23 2.02323e-22 -5.83084e-21 9.17287e-34 
5.0348e-21 -8.72145e-24 9.3878e-24 -8.29961e-22 -5.29007e-23 5.69425e-23 -5.0342e-21 -7.83542e-35 
6.1801e-21 -5.77681e-23 0 -2.20166e-21 -1.621e-22 0 -6.17797e-21 1.58503e-33 
4.76423e-21 -1.61701e-24 0 -3.39451e-21 -2.26949e-24 0 -4.76423e-21 5.48853e-34 
4.79338e-21 -7.89377e-24 2.81561e-23 -1.16587e-21 -3.24444e-23 1.15725e-22 -4.79188e-21 4.60951e-34 
1.11609e-20 -1.32801e-22 0 -2.04035e-21 -7.24897e-22 0 -1.11373e-20 -8.36533e-34 
5.61381e-21 -7.60875e-24 3.99984e-21 0 -1.06789e-23 5.6138e-21 0 -4.43367e-34 
1.22257e-20 -1.49878e-22 2.25237e-21 -5.03605e-23 -8.1153e-22 1.21956e-20 -2.72682e-22 9.85585e-35 
6.49631e-21 -4.65623e-23 1.20148e-21 -2.0483e-23 -2.51534e-22 6.4905e-21 -1.10651e-22 -5.36062e-34 
1.45085e-20 -1.7867e-22 2.62553e-21 -1.19529e-22 -9.84022e-22 1.44601e-20 -6.58307e-22 -5.91795e-34 
4.12236e-21 -4.9061e-25 1.03059e-21 -1.47425e-27 -1.96244e-24 4.12236e-21 -5.89699e-27 4.90877e-34 
5.26353e-21 -7.45707e-24 1.26428e-21 -3.91056e-23 -3.10303e-23 5.26092e-21 -1.62726e-22 3.39624e-34 
4.1845e-21 -7.39721e-24 6.74547e-22 -2.34059e-23 -4.58576e-23 4.18173e-21 -1.45101e-22 -1.49243e-34 
6.3345e-21 -2.0661e-23 1.1446e-21 -4.98267e-23 -1.14216e-22 6.32747e-21 -2.75447e-22 -4.38204e-34 
6.76286e-21 -4.7762e-23 1.25078e-21 -2.13235e-23 -2.5802e-22 6.75695e-21 -1.15194e-22 7.51771e-34 
8.21924e-21 -4.59489e-23 1.47818e-21 -7.77479e-23 -2.55017e-22 8.20394e-21 -4.31502e-22 -1.76302e-33 
8.54119e-21 -8.16318e-23 1.55218e-21 -6.24178e-23 -4.48214e-22 8.52253e-21 -3.42716e-22 3.25622e-34 
3.91689e-21 -6.10026e-24 1.28096e-21 -1.48372e-23 -1.86518e-23 3.91658e-21 -4.53651e-23 1.63373e-34 
4.77869e-21 -1.38547e-23 7.87743e-22 -8.91027e-24 -8.40287e-23 4.77765e-21 -5.40406e-23 1.31764e-34 
5.38996e-21 -7.40895e-24 6.45824e-22 -2.55932e-23 -6.17816e-23 5.38538e-21 -2.13416e-22 -1.65495e-33 
4.033e-21 -6.9979e-24 6.58631e-22 -1.13817e-23 -4.28415e-23 4.03217e-21 -6.96792e-23 9.56193e-34 
3.36319e-21 -1.06672e-24 6.30599e-23 0 -5.68835e-23 3.36271e-21 0 4.3836e-34 
5.13192e-21 -1.65848e-23 9.38948e-22 2.69117e-23 -9.05947e-23 5.12902e-21 1.47006e-22 -5.19606e-34 
4.90129e-21 -1.79608e-23 1.74609e-21 0 -5.04137e-23 4.90103e-21 0 2.14256e-34 
5.03673e-21 -6.41984e-25 1.21335e-21 1.61628e-23 -2.66471e-24 5.03628e-21 6.70877e-23 3.72892e-34 
5.59014e-21 -7.91979e-24 1.34274e-21 4.15322e-23 -3.29557e-23 5.58737e-21 1.72823e-22 -9.33356e-34 
9.19257e-21 -8.79607e-23 1.66354e-21 7.57337e-23 -4.84885e-22 9.17027e-21 4.17483e-22 5.79388e-34 
5.75998e-21 -4.07321e-23 1.06338e-21 2.10468e-23 -2.20428e-22 5.75464e-21 1.13898e-22 1.76674e-33 
8.65397e-21 -7.48804e-23 1.54771e-21 9.48634e-23 -4.17422e-22 8.62771e-21 5.28817e-22 5.76084e-34 
7.02482e-21 -3.51316e-23 1.2813e-21 4.42995e-23 -1.92424e-22 7.01799e-21 2.42639e-22 -5.4352e-34 
6.40589e-21 -1.24691e-23 1.03264e-21 3.58312e-23 -7.72989e-23 6.40157e-21 2.22126e-22 1.06653e-33 
5.79326e-21 -1.00353e-23 9.5499e-22 1.0802e-23 -6.08699e-23 5.79257e-21 6.55205e-23 1.53147e-34 
6.58863e-21 -6.15868e-23 2.3472e-21 0 -1.72816e-22 6.58636e-21 0 1.46475e-33 
4.84586e-21 -1.64472e-24 3.45267e-21 0 -2.30837e-24 4.84586e-21 0 5.90058e-34 
5.19081e-21 -8.54825e-24 1.26254e-21 3.04905e-23 -3.51344e-23 5.18917e-21 1.2532e-22 -2.55816e-34 
1.22359e-20 -1.45592e-22 2.23687e-21 0 -7.9472e-22 1.22101e-20 0 -9.39097e-34 
4.82413e-21 -6.53844e-24 0 3.43719e-21 -9.17674e-24 0 4.82412e-21 -4.16996e-34 
1.12014e-20 -1.37321e-22 4.61412e-23 2.06366e-21 -7.43538e-22 2.49836e-22 1.11739e-20 -6.70834e-34 
7.16756e-21 -5.13735e-23 2.25995e-23 1.32563e-21 -2.77524e-22 1.22084e-22 7.16115e-21 -4.50419e-34 
1.33172e-20 -1.64e-22 1.09715e-22 2.40996e-21 -9.03226e-22 6.04255e-22 1.32728e-20 1.61693e-34 
4.45809e-21 -5.30567e-25 1.59431e-27 1.11452e-21 -2.12227e-24 6.37725e-27 4.45809e-21 5.35502e-34 
5.2779e-21 -7.47742e-24 3.92123e-23 1.26773e-21 -3.11149e-23 1.6317e-22 5.27528e-21 3.83604e-34 
4.03493e-21 -7.13281e-24 2.25693e-23 6.50437e-22 -4.42186e-23 1.39914e-22 4.03227e-21 -3.42167e-34 
4.84996e-21 -1.5819e-23 3.81495e-23 8.76355e-22 -8.74488e-23 2.10894e-22 4.84458e-21 -1.8502e-34 
7.81668e-21 -5.52045e-23 2.46462e-23 1.44568e-21 -2.98226e-22 1.33144e-22 7.80985e-21 9.89674e-34 
5.95873e-21 -3.33117e-23 5.63651e-23 1.07164e-21 -1.84881e-22 3.12827e-22 5.94764e-21 -1.11452e-33 
8.42121e-21 -8.04852e-23 6.1541e-23 1.53038e-21 -4.41918e-22 3.37902e-22 8.40282e-21 -1.45079e-34 
4.81813e-21 -7.50389e-24 1.82511e-23 1.5757e-21 -2.29434e-23 5.58033e-23 4.81776e-21 -7.54028e-35 
5.34029e-21 -1.5483e-23 9.95742e-24 8.8032e-22 -9.3904e-23 6.03916e-23 5.33913e-21 1.28203e-34 
6.98979e-21 -9.60805e-24 3.31897e-23 8.37515e-22 -8.01193e-23 2.76761e-22 6.98385e-21 -1.18491e-33 
5.56275e-21 -9.65225e-24 1.56988e-23 9.08454e-22 -5.90916e-23 9.61089e-23 5.5616e-21 1.50978e-33 
2.77153e-21 -8.79059e-25 0 5.19662e-23 -4.68764e-23 0 2.77113e-21 -8.14097e-34 
4.48907e-21 -1.45073e-23 -2.35406e-23 8.2133e-22 -7.92462e-23 -1.28591e-22 4.48652e-21 -4.65079e-34 
4.93131e-21 -1.80708e-23 0 1.75678e-21 -5.07224e-23 0 4.93105e-21 2.14256e-35 
5.60723e-21 -7.147e-25 -1.79936e-23 1.35078e-21 -2.96654e-24 -7.46866e-23 5.60673e-21 5.4106e-34 
4.6947e-21 -6.65118e-24 -3.48794e-23 1.12765e-21 -2.76768e-23 -1.4514e-22 4.69237e-21 -5.96175e-34 
9.54798e-21 -9.13615e-23 -7.86618e-23 1.72785e-21 -5.03632e-22 -4.33625e-22 9.52482e-21 -1.29472e-35 
6.7608e-21 -4.78094e-23 -2.47038e-23 1.24814e-21 -2.58728e-22 -1.33688e-22 6.75452e-21 -9.02435e-34 
8.53843e-21 -7.38807e-23 -9.35968e-23 1.52704e-21 -4.11848e-22 -5.21756e-22 8.51252e-21 2.17013e-33 
5.91635e-21 -2.9588e-23 -3.73093e-23 1.07912e-21 -1.62061e-22 -2.04352e-22 5.9106e-21 -1.21568e-33 
6.13891e-21 -1.19494e-23 -3.43378e-23 9.89601e-22 -7.40773e-23 -2.12868e-22 6.13477e-21 8.08086e-34 
4.9851e-21 -8.63537e-24 -9.29514e-24 8.21769e-22 -5.23786e-23 -5.63804e-23 4.98451e-21 -2.84924e-34 
6.15227e-21 -5.7508e-23 0 2.19175e-21 -1.6137e-22 0 6.15015e-21 1.96563e-33 
5.20137e-21 -1.76538e-24 0 3.70598e-21 -2.47773e-24 0 5.20137e-21 3.11511e-34 
4.52623e-21 -7.45383e-24 -2.65869e-23 1.10089e-21 -3.06362e-23 -1.09275e-22 4.52481e-21 2.89603e-35 
1.06043e-20 -1.26178e-22 0 1.93859e-21 -6.88746e-22 0 1.05819e-20 -3.42947e-34 
5.10574e-21 -6.92013e-24 -3.63784e-21 0 -9.71244e-24 -5.10573e-21 0 -1.41746e-34 
1.24377e-20 -1.52477e-22 -2.29142e-21 5.12338e-23 -8.25602e-22 -1.24071e-20 2.7741e-22 9.47433e-34 
5.95498e-21 -4.26824e-23 -1.10136e-21 1.87762e-23 -2.30574e-22 -5.94965e-21 1.01431e-22 2.03006e-34 
1.5006e-20 -1.84797e-22 -2.71557e-21 1.23628e-22 -1.01777e-21 -1.4956e-20 6.80882e-22 -1.0413e-33 
3.9539e-21 -4.70562e-25 -9.88476e-22 1.414e-27 -1.88225e-24 -3.9539e-21 5.65602e-27 3.57002e-34 
4.64291e-21 -6.5778e-24 -1.11521e-21 3.44947e-23 -2.73715e-23 -4.64061e-21 1.43539e-22 4.05594e-34 
4.81523e-21 -8.51219e-24 -7.76221e-22 2.69339e-23 -5.27697e-23 -4.81204e-21 1.66972e-22 -5.20531e-34 
5.55973e-21 -1.8134e-23 -1.00461e-21 4.37325e-23 -1.00247e-22 -5.55357e-21 2.41758e-22 -5.19353e-35 
7.40425e-21 -5.22918e-23 -1.3694e-21 2.33458e-23 -2.82491e-22 -7.39779e-21 1.26119e-22 6.94675e-34 
8.00013e-21 -4.47239e-23 -1.43878e-21 7.56752e-23 -2.48219e-22 -7.98524e-21 4.19999e-22 -2.13453e-33 
8.36856e-21 -7.99819e-23 -1.52081e-21 6.11562e-23 -4.39155e-22 -8.35028e-21 3.35789e-22 -1.61199e-35 
4.56426e-21 -7.10849e-24 -1.49267e-21 1.72894e-23 -2.17345e-23 -4.5639e-21 5.28629e-23 -1.32852e-34 
4.78785e-21 -1.38813e-23 -7.89252e-22 8.92734e-24 -8.41897e-23 -4.7868e-21 5.41441e-23 6.62383e-34 
7.03079e-21 -9.6644e-24 -8.42428e-22 3.33844e-23 -8.05893e-23 -7.02481e-21 2.78385e-22 -1.83612e-33 
4.37733e-21 -7.59536e-24 -7.14863e-22 1.23534e-23 -4.64992e-23 -4.37643e-21 7.56282e-23 1.58167e-34 
4.37488e-22 -1.3876e-25 -8.20292e-24 0 -7.39948e-24 -4.37426e-22 0 2.50491e-34 
4.94177e-21 -1.59703e-23 -9.04157e-22 -2.59146e-23 -8.72379e-23 -4.93897e-21 -1.41559e-22 -8.62803e-34 
4.665e-21 -1.70949e-23 -1.66191e-21 0 -4.79832e-23 -4.66476e-21 0 2.35681e-34 
5.68555e-21 -7.24683e-25 -1.36965e-21 -1.82449e-23 -3.00797e-24 -5.68504e-21 -7.57298e-23 4.99627e-34 
4.80848e-21 -6.81238e-24 -1.15498e-21 -3.57248e-23 -2.83476e-23 -4.8061e-21 -1.48658e-22 -5.17988e-34 
1.04481e-20 -9.99747e-23 -1.89075e-21 -8.60777e-23 -5.51112e-22 -1.04228e-20 -4.74505e-22 5.66441e-34 
6.37592e-21 -4.50877e-23 -1.17709e-21 -2.32974e-23 -2.43999e-22 -6.37e-21 -1.26078e-22 1.24879e-33 
8.20326e-21 -7.09806e-23 -1.4671e-21 -8.99228e-23 -3.95682e-22 -8.17837e-21 -5.01275e-22 6.51368e-34 
7.15786e-21 -3.5797e-23 -1.30557e-21 -4.51385e-23 -1.96069e-22 -7.1509e-21 -2.47234e-22 -6.1749e-34 
5.22363e-21 -1.01678e-23 -8.42057e-22 -2.92183e-23 -6.30328e-23 -5.22011e-21 -1.81131e-22 1.14297e-33 
4.61725e-21 -7.99815e-24 -7.61129e-22 -8.60923e-24 -4.85135e-23 -4.6167e-21 -5.222e-23 -5.0574e-34 
6.13166e-21 -5.73153e-23 -2.1844e-21 0 -1.6083e-22 -6.12955e-21 0 1.46146e-33 
5.23632e-21 -1.77724e-24 -3.73088e-21 0 -2.49437e-24 -5.23632e-21 0 4.3183e-34 
4.58739e-21 -7.55455e-24 -1.11577e-21 -2.69461e-23 -3.10501e-23 -4.58595e-21 -1.10752e-22 -2.41336e-36 
1.13245e-20 -1.34747e-22 -2.07026e-21 0 -7.35524e-22 -1.13006e-20 0 -6.82688e-34 
3.95378e-20 0 -3.30272e-20 -3.30272e-20 0 -2.79574e-20 -2.79574e-20 1.98145e-32 
0 0 0 0 0 0 0 0 
0 0 0 0 0 0 0 0 
0 0 0 0 0 0 0 0 
0 0 0 0 0 0 0 0 
0 0 0 0 0 0 0 0 
0 0 0 0 0 0 0 0 
0 0 0 0 0 0 0 0 
0 0 0 0 0 0 0 0 
0 0 0 0 0 0 0 0 
0 0 0 0 0 0 0 0 
0 0 0 0 0 0 0 0 
0 0 0 0 0 0 0 0 
0 0 0 0 0 0 0 0 
0 0 0 0 0 0 0 0 
0 0 0 0 0 0 0 0 
0 0 0 0 0 0 0 0 
0 0 0 0 0 0 0 0 
0 0 0 0 0 0 0 0 
0 0 0 0 0 0 0 0 
0 0 0 0 0 0 0 0 
0 0 0 0 0 0 0 0 
0 0 0 0 0 0 0 0 
0 0 0 0 0 0 0 0 
0 0 0 0 0 0 0 0 
0 0 0 0 0 0 0 0 
0 0 0 0 0 0 0 0 
0 0 0 0 0 0 0 0 
0 0 0 0 0 0 0 0 
0 0 0 0 0 0 0 0 
0 0 0 0 0 0 0 0 
0 0 0 0 0 0 0 0 
0 0 0 0 0 0 0 0 
0 0 0 0 0 0 0 0 
0 0 0 0 0 0 0 0 
0 0 0 0 0 0 0 0 
0 0 0 0 0 0 0 0 
0 0 0 0 0 0 0 0 
0 0 0 0 0 0 0 0 
0 0 0 0 0 0 0 0 
0 0 0 0 0 0 0 0 
0 0 0 0 0 0 0 0 
0 0 0 0 0 0 0 0 
0 0 0 0 0 0 0 0 
0 0 0 0 0 0 0 0 
0 0 0 0 0 0 0 0 
0 0 0 0 0 0 0 0 
4.02398e-20 0 3.36136e-20 3.36136e-20 0 2.84539e-20 2.84539e-20 2.03081e-32 
4.76607e-20 -1.95031e-21 -2.9556e-22 -1.10064e-20 -8.31294e-21 -1.25978e-21 -4.69132e-20 -2.36135e-32 
5.31024e-20 -3.22529e-21 -1.17775e-21 -1.78854e-20 -9.40427e-21 -3.43406e-21 -5.21501e-20 -1.56038e-32 
3.9337e-20 -1.43952e-21 -2.53154e-22 -8.05087e-21 -6.92045e-21 -1.21703e-21 -3.87043e-20 -1.99291e-33 
8.29106e-20 -2.49037e-21 -1.98714e-21 -9.84546e-21 -1.99532e-20 -1.59212e-20 -7.88832e-20 -6.4593e-33 
9.85563e-20 -1.63382e-21 -9.6609e-22 -6.57008e-21 -2.35457e-20 -1.39227e-20 -9.46842e-20 -5.40722e-33 
9.42575e-20 -1.65744e-21 -6.56239e-22 -6.81288e-21 -2.21842e-20 -8.78349e-21 -9.11877e-20 8.86504e-33 
5.72807e-20 -9.38073e-22 -3.43203e-22 -4.23045e-21 -1.23617e-20 -4.52264e-21 -5.57478e-20 6.29069e-33 
3.96608e-20 -1.2455e-21 -3.48636e-22 -6.84155e-21 -7.09454e-21 -1.98588e-21 -3.89705e-20 1.3713e-34 
4.34262e-20 -1.51265e-21 -4.04946e-22 -8.14725e-21 -7.91775e-21 -2.11963e-21 -4.26457e-20 -4.88376e-33 
4.53748e-20 -1.45844e-21 -6.43291e-22 -7.75303e-21 -8.36067e-21 -3.68774e-21 -4.44451e-20 1.85805e-33 
4.94677e-20 -1.64937e-21 -8.32851e-22 -8.42043e-21 -9.46442e-21 -4.77906e-21 -4.83181e-20 -4.24534e-34 
1.33212e-19 -3.08478e-21 -2.71934e-21 -1.53291e-20 -2.58918e-20 -2.28246e-20 -1.28663e-19 4.13098e-32 
4.71614e-20 -1.77006e-21 -1.02311e-21 -8.84643e-21 -9.19406e-21 -5.31424e-21 -4.59503e-20 -3.37015e-33 
5.02297e-20 -1.09404e-21 -3.81899e-22 -5.38707e-21 -9.97287e-21 -3.48124e-21 -4.91065e-20 1.139e-32 
5.01554e-20 -1.38773e-21 -7.48672e-22 -6.539e-21 -1.03476e-20 -5.58245e-21 -4.87579e-20 -8.14353e-34 
7.49816e-20 -1.26016e-21 -5.97469e-22 -5.14575e-21 -1.77232e-20 -8.40292e-21 -7.23708e-20 -1.8523e-32 
5.75576e-20 -8.95837e-22 -3.93898e-22 -4.01979e-21 -1.24631e-20 -5.47999e-21 -5.59242e-20 -1.49082e-32 
5.66946e-20 -1.74518e-21 -7.76412e-22 -7.92341e-21 -1.21395e-20 -5.40076e-21 -5.51157e-20 -3.06331e-34 