ITEM: TIMESTEP
75
ITEM: NUMBER OF SURFS
6916
ITEM: BOX BOUNDS oo rr rr
-20 20
-20 20
-20 20
ITEM: SURFS f_save[1] f_save[2] f_save[3] f_save[4] f_save[5] f_save[6] f_save[7] f_save[8] 
1.94125e-20 -1.45654e-21 0 0 -1.94125e-20 0 0 0 
1.09239e-22 0 0 -3.27831e-22 0 0 -1.09239e-22 0 
0 0 0 0 0 0 0 0 
1.27944e-18 -3.11862e-20 0 0 -1.27944e-18 0 0 1.19013e-30 
1.20151e-18 -1.50189e-21 0 0 -1.20151e-18 0 0 0 
1.36916e-18 -1.71146e-21 0 0 -1.36916e-18 0 0 0 
8.80136e-19 -1.10017e-21 0 0 -8.80136e-19 0 0 0 
1.20129e-18 -2.92813e-20 0 0 -1.20129e-18 0 0 1.10183e-30 
1.14502e-18 -2.71942e-20 0 0 -1.14502e-18 0 0 0 
1.23483e-18 -2.93273e-20 0 0 -1.23483e-18 0 0 0 
1.31446e-18 -3.12186e-20 0 0 -1.31446e-18 0 0 0 
1.30947e-18 -3.10998e-20 0 0 -1.30947e-18 0 0 0 
1.33238e-18 -3.24767e-20 0 0 -1.33238e-18 0 0 0 
1.29309e-18 -3.07109e-20 0 0 -1.29309e-18 0 0 0 
1.21697e-18 -2.89029e-20 0 0 -1.21697e-18 0 0 0 
1.2876e-18 -3.13855e-20 0 0 -1.2876e-18 0 0 0 
1.23435e-18 -3.00872e-20 0 0 -1.23435e-18 0 0 1.14779e-30 
1.36711e-18 -3.2469e-20 0 0 -1.36711e-18 0 0 1.25786e-30 
1.25565e-18 -2.98218e-20 0 0 -1.25565e-18 0 0 0 
1.25464e-18 -3.05817e-20 0 0 -1.25464e-18 0 0 1.16274e-30 
1.22801e-18 -2.91653e-20 0 0 -1.22801e-18 0 0 0 
1.24985e-18 -2.9684e-20 0 0 -1.24985e-18 0 0 0 
1.19968e-18 -2.92421e-20 0 0 -1.19968e-18 0 0 0 
1.26649e-18 -3.00793e-20 0 0 -1.26649e-18 0 0 0 
1.35807e-18 -3.22542e-20 0 0 -1.35807e-18 0 0 0 
1.29114e-18 -3.06646e-20 0 0 -1.29114e-18 0 0 0 
1.19913e-18 -1.49891e-21 0 0 -1.19913e-18 0 0 0 
1.178e-18 -2.79775e-20 0 0 -1.178e-18 0 0 0 
1.27832e-18 -3.03601e-20 0 0 -1.27832e-18 0 0 0 
1.21766e-18 -1.52208e-21 0 0 -1.21766e-18 0 0 0 
1.17126e-18 -2.78175e-20 0 0 -1.17126e-18 0 0 0 
1.30534e-18 -3.10017e-20 0 0 -1.30534e-18 0 0 0 
1.89418e-18 -2.36773e-21 0 0 -1.89418e-18 0 0 0 
1.24894e-18 -3.0443e-20 0 0 -1.24894e-18 0 0 1.14726e-30 
1.30697e-18 -3.10408e-20 0 0 -1.30697e-18 0 0 0 
1.72352e-18 -2.15441e-21 0 0 -1.72352e-18 0 0 0 
1.2918e-18 -3.14876e-20 0 0 -1.2918e-18 0 0 1.18874e-30 
1.21436e-18 -2.88412e-20 0 0 -1.21436e-18 0 0 0 
1.62464e-18 -2.03081e-21 0 0 -1.62464e-18 0 0 0 
1.12713e-18 -2.67695e-20 0 0 -1.12713e-18 0 0 0 
1.28609e-18 -3.13485e-20 0 0 -1.28609e-18 0 0 0 
1.34574e-18 -1.68219e-21 0 0 -1.34574e-18 0 0 0 
1.21081e-18 -2.87569e-20 0 0 -1.21081e-18 0 0 0 
1.27744e-18 -3.11376e-20 0 0 -1.27744e-18 0 0 0 
1.35661e-18 -1.69576e-21 0 0 -1.35661e-18 0 0 0 
1.29932e-18 -3.08589e-20 0 0 -1.29932e-18 0 0 0 
1.25288e-18 -2.9756e-20 0 0 -1.25288e-18 0 0 0 
1.61439e-18 -2.01799e-21 0 0 -1.61439e-18 0 0 0 
1.26048e-18 -1.57561e-21 0 0 -1.26048e-18 0 0 0 
1.3582e-18 -1.69775e-21 0 0 -1.3582e-18 0 0 0 
1.25752e-18 -2.98663e-20 0 0 -1.25752e-18 0 0 1.16508e-30 
1.24281e-18 -2.95167e-20 0 0 -1.24281e-18 0 0 0 
1.28074e-18 -3.04178e-20 0 0 -1.28074e-18 0 0 1.17319e-30 
1.58034e-18 -1.97543e-21 0 0 -1.58034e-18 0 0 0 
1.27107e-18 -3.01879e-20 0 0 -1.27107e-18 0 0 0 
1.28685e-18 -3.05627e-20 0 0 -1.28685e-18 0 0 0 
1.36556e-18 -3.24321e-20 0 0 -1.36556e-18 0 0 0 
1.51378e-18 -1.89223e-21 0 0 -1.51378e-18 0 0 0 
1.33704e-18 -3.17547e-20 0 0 -1.33704e-18 0 0 0 
1.26556e-18 -3.00571e-20 0 0 -1.26556e-18 0 0 0 
1.26895e-18 -3.01376e-20 0 0 -1.26895e-18 0 0 0 
1.4969e-18 -1.87114e-21 0 0 -1.4969e-18 0 0 0 
1.22645e-18 -2.91283e-20 0 0 -1.22645e-18 0 0 0 
1.14797e-18 -2.79817e-20 0 0 -1.14797e-18 0 0 1.06074e-30 
1.3334e-18 -1.66676e-21 0 0 -1.3334e-18 0 0 0 
1.19692e-18 -2.84268e-20 0 0 -1.19692e-18 0 0 0 
1.16954e-18 -2.77765e-20 0 0 -1.16954e-18 0 0 0 
1.49299e-18 -1.86624e-21 0 0 -1.49299e-18 0 0 0 
1.1919e-18 -2.83078e-20 0 0 -1.1919e-18 0 0 0 
1.25408e-18 -2.97845e-20 0 0 -1.25408e-18 0 0 0 
1.67279e-18 -2.09098e-21 0 0 -1.67279e-18 0 0 0 
1.34306e-18 -3.18976e-20 0 0 -1.34306e-18 0 0 0 
1.20525e-18 -2.86246e-20 0 0 -1.20525e-18 0 0 0 
1.15165e-18 -1.43957e-21 0 0 -1.15165e-18 0 0 0 
1.60371e-18 -2.00464e-21 0 0 -1.60371e-18 0 0 0 
1.34511e-18 -3.19463e-20 0 0 -1.34511e-18 0 0 0 
1.36134e-18 -3.23318e-20 0 0 -1.36134e-18 0 0 0 
1.65321e-18 -2.06652e-21 0 0 -1.65321e-18 0 0 0 
1.28377e-18 -3.04896e-20 0 0 -1.28377e-18 0 0 0 
1.27711e-18 -3.03313e-20 0 0 -1.27711e-18 0 0 0 
1.17117e-18 -2.78152e-20 0 0 -1.17117e-18 0 0 0 
1.23271e-18 -2.92768e-20 0 0 -1.23271e-18 0 0 0 
1.2359e-18 -2.93527e-20 0 0 -1.2359e-18 0 0 0 
1.29078e-18 -3.1463e-20 0 0 -1.29078e-18 0 0 0 
1.27325e-18 -3.18313e-20 0 0 -1.27325e-18 0 0 0 
1.20105e-18 -3.00263e-20 0 0 -1.20105e-18 0 0 0 
1.14452e-18 -2.8613e-20 0 0 -1.14452e-18 0 0 0 
1.28605e-18 -3.21514e-20 0 0 -1.28605e-18 0 0 0 
1.249e-18 -1.07414e-18 0 0 -1.249e-18 0 0 1.1511e-30 
1.25772e-18 -5.97415e-19 0 0 -1.25772e-18 0 0 1.15936e-30 
1.25046e-18 -5.93968e-19 0 0 -1.25046e-18 0 0 0 
1.2379e-18 -5.88001e-19 0 0 -1.2379e-18 0 0 0 
1.24402e-18 -6.06461e-19 0 0 -1.24402e-18 0 0 0 
1.25859e-18 -1.08238e-18 0 0 -1.25859e-18 0 0 1.1611e-30 
1.25896e-18 -5.98007e-19 0 0 -1.25896e-18 0 0 0 
1.23966e-18 -5.88838e-19 0 0 -1.23966e-18 0 0 0 
1.25237e-18 -5.94873e-19 0 0 -1.25237e-18 0 0 0 
1.23412e-18 -6.01632e-19 0 0 -1.23412e-18 0 0 0 
1.30208e-18 -3.2552e-20 0 0 -1.30208e-18 0 0 1.19767e-30 
1.19302e-18 -2.98255e-20 0 0 -1.19302e-18 0 0 0 
1.33715e-18 -3.34287e-20 0 0 -1.33715e-18 0 0 1.22328e-30 
2.43049e-21 0 0 -1.42184e-20 0 0 -2.43049e-21 0 
0 0 0 0 0 0 0 0 
0 0 0 0 0 0 0 0 
0 0 0 0 0 0 0 0 
0 0 0 0 0 0 0 0 
0 0 0 0 0 0 0 0 
0 0 0 0 0 0 0 0 
0 0 0 0 0 0 0 0 
0 0 0 0 0 0 0 0 
0 0 0 0 0 0 0 0 
0 0 0 0 0 0 0 0 
0 0 0 0 0 0 0 0 
0 0 0 0 0 0 0 0 
0 0 0 0 0 0 0 0 
0 0 0 0 0 0 0 0 
0 0 0 0 0 0 0 0 
0 0 0 0 0 0 0 0 
0 0 0 0 0 0 0 0 
0 0 0 0 0 0 0 0 
0 0 0 0 0 0 0 0 
0 0 0 0 0 0 0 0 
0 0 0 0 0 0 0 0 
0 0 0 0 0 0 0 0 
0 0 0 0 0 0 0 0 
0 0 0 0 0 0 0 0 
0 0 0 0 0 0 0 0 
0 0 0 0 0 0 0 0 
0 0 0 0 0 0 0 0 
0 0 0 0 0 0 0 0 
0 0 0 0 0 0 0 0 
0 0 0 0 0 0 0 0 
0 0 0 0 0 0 0 0 
0 0 0 0 0 0 0 0 
0 0 0 0 0 0 0 0 
0 0 0 0 0 0 0 0 
0 0 0 0 0 0 0 0 
0 0 0 0 0 0 0 0 
0 0 0 0 0 0 0 0 
0 0 0 0 0 0 0 0 
0 0 0 0 0 0 0 0 
0 0 0 0 0 0 0 0 
0 0 0 0 0 0 0 0 
0 0 0 0 0 0 0 0 
0 0 0 0 0 0 0 0 
0 0 0 0 0 0 0 0 
0 0 0 0 0 0 0 0 
0 0 0 0 0 0 0 0 
0 0 0 0 0 0 0 0 
0 0 0 0 0 0 0 0 
0 0 0 0 0 0 0 0 
0 0 0 0 0 0 0 0 
0 0 0 0 0 0 0 0 
0 0 0 0 0 0 0 0 
0 0 0 0 0 0 0 0 
0 0 0 0 0 0 0 0 
0 0 0 0 0 0 0 0 
0 0 0 0 0 0 0 0 
0 0 0 0 0 0 0 0 
0 0 0 0 0 0 0 0 
0 0 0 0 0 0 0 0 
0 0 0 0 0 0 0 0 
0 0 0 0 0 0 0 0 
0 0 0 0 0 0 0 0 
0 0 0 0 0 0 0 0 
0 0 0 0 0 0 0 0 
0 0 0 0 0 0 0 0 
0 0 0 0 0 0 0 0 
0 0 0 0 0 0 0 0 
0 0 0 0 0 0 0 0 
0 0 0 0 0 0 0 0 
0 0 0 0 0 0 0 0 
0 0 0 0 0 0 0 0 
0 0 0 0 0 0 0 0 
0 0 0 0 0 0 0 0 
0 0 0 0 0 0 0 0 
0 0 0 0 0 0 0 0 
0 0 0 0 0 0 0 0 
0 0 0 0 0 0 0 0 
0 0 0 0 0 0 0 0 
0 0 0 0 0 0 0 0 
0 0 0 0 0 0 0 0 
0 0 0 0 0 0 0 0 
0 0 0 0 0 0 0 0 
2.27631e-19 -2.39011e-19 -2.92728e-19 -2.92728e-19 -1.13816e-19 -1.39395e-19 -1.39395e-19 -7.45592e-32 
1.63859e-21 0 0 -2.42313e-19 0 0 -1.63859e-21 0 
5.18709e-22 0 1.05083e-19 -1.05083e-19 0 3.66783e-22 -3.66783e-22 -2.46035e-35 
2.27664e-19 -2.39046e-19 2.9277e-19 2.9277e-19 -1.13832e-19 1.39415e-19 1.39415e-19 -7.52325e-32 
1.66037e-21 0 0 2.45533e-19 0 0 1.66037e-21 0 
1.63575e-21 0 -1.49208e-19 1.49208e-19 0 -1.15665e-21 1.15665e-21 9.95064e-35 
1.89103e-21 0 -1.10625e-20 0 0 -1.89103e-21 0 0 
1.89324e-21 0 1.10754e-20 0 0 1.89324e-21 0 0 
1.87978e-21 0 0 -1.07148e-20 0 0 -1.87978e-21 0 
1.89968e-21 0 0 1.08282e-20 0 0 1.89968e-21 0 
1.91262e-21 0 0 -1.09019e-20 0 0 -1.91262e-21 0 
1.89849e-21 0 0 1.08214e-20 0 0 1.89849e-21 0 
1.95491e-21 0 0 1.1143e-20 0 0 1.95491e-21 0 
1.93542e-21 0 0 -1.10319e-20 0 0 -1.93542e-21 0 
1.84805e-21 0 0 -1.05339e-20 0 0 -1.84805e-21 0 
1.85864e-21 0 0 1.05942e-20 0 0 1.85864e-21 0 
1.85942e-21 0 0 -1.05987e-20 0 0 -1.85942e-21 0 
1.8268e-21 0 0 1.04128e-20 0 0 1.8268e-21 0 
1.93689e-21 0 -1.10403e-20 0 0 -1.93689e-21 0 0 
1.90831e-21 0 1.08773e-20 0 0 1.90831e-21 0 0 
1.91046e-21 0 0 -1.08896e-20 0 0 -1.91046e-21 0 
1.96598e-21 0 0 1.12061e-20 0 0 1.96598e-21 0 
1.98703e-21 0 -1.13261e-20 0 0 -1.98703e-21 0 0 
1.99619e-21 0 1.13783e-20 0 0 1.99619e-21 0 0 
1.91418e-21 0 -1.09108e-20 0 0 -1.91418e-21 0 0 
1.87897e-21 0 1.07101e-20 0 0 1.87897e-21 0 0 
1.87938e-21 0 1.09943e-20 0 0 1.87938e-21 0 0 
1.99359e-21 0 -1.16625e-20 0 0 -1.99359e-21 0 0 
1.83386e-21 0 1.07281e-20 0 0 1.83386e-21 0 0 
1.87859e-21 0 -1.09897e-20 0 0 -1.87859e-21 0 0 
1.81722e-21 0 -1.03581e-20 0 0 -1.81722e-21 0 0 
1.89425e-21 0 1.07972e-20 0 0 1.89425e-21 0 0 
1.87468e-21 0 1.09669e-20 0 0 1.87468e-21 0 0 
1.92936e-21 0 -5.64338e-21 0 0 -1.92936e-21 0 0 
1.85561e-21 0 0 5.42766e-21 0 0 1.85561e-21 0 
1.90743e-21 0 0 -1.08723e-20 0 0 -1.90743e-21 0 
2.5061e-21 0 0 1.42848e-20 0 0 2.5061e-21 0 
1.90369e-21 0 0 1.11366e-20 0 0 1.90369e-21 0 
1.87585e-21 0 0 -1.09737e-20 0 0 -1.87585e-21 0 
1.82387e-21 0 -1.03961e-20 0 0 -1.82387e-21 0 0 
1.90303e-21 0 1.08473e-20 0 0 1.90303e-21 0 0 
1.93791e-21 0 -1.10461e-20 0 0 -1.93791e-21 0 0 
1.84355e-21 0 1.05082e-20 0 0 1.84355e-21 0 0 
1.88968e-21 0 0 1.07712e-20 0 0 1.88968e-21 0 
1.89035e-21 0 0 -1.0775e-20 0 0 -1.89035e-21 0 
1.81821e-21 0 -1.03638e-20 0 0 -1.81821e-21 0 0 
1.92657e-21 0 1.09814e-20 0 0 1.92657e-21 0 0 
2.00455e-21 0 0 1.14259e-20 0 0 2.00455e-21 0 
1.80069e-21 0 0 -1.02639e-20 0 0 -1.80069e-21 0 
1.83645e-21 0 -1.04678e-20 0 0 -1.83645e-21 0 0 
1.90709e-21 0 1.08704e-20 0 0 1.90709e-21 0 0 
1.87528e-21 0 0 1.06891e-20 0 0 1.87528e-21 0 
2.42954e-21 0 0 -1.38484e-20 0 0 -2.42954e-21 0 
1.98181e-21 0 1.12963e-20 0 0 1.98181e-21 0 0 
1.94187e-21 0 -1.10687e-20 0 0 -1.94187e-21 0 0 
1.86781e-21 0 1.06465e-20 0 0 1.86781e-21 0 0 
1.94814e-21 0 -1.11044e-20 0 0 -1.94814e-21 0 0 
1.92168e-21 0 0 -1.09536e-20 0 0 -1.92168e-21 0 
1.97815e-21 0 0 1.12754e-20 0 0 1.97815e-21 0 
1.8956e-21 0 0 1.08049e-20 0 0 1.8956e-21 0 
2.45636e-21 0 0 -1.40013e-20 0 0 -2.45636e-21 0 
1.89472e-21 0 0 1.07999e-20 0 0 1.89472e-21 0 
2.45272e-21 0 0 -1.39805e-20 0 0 -2.45272e-21 0 
1.86445e-21 0 -1.06273e-20 0 0 -1.86445e-21 0 0 
2.51097e-21 0 1.43125e-20 0 0 2.51097e-21 0 0 
1.90517e-21 0 -1.08595e-20 0 0 -1.90517e-21 0 0 
1.88528e-21 0 1.07461e-20 0 0 1.88528e-21 0 0 
2.42222e-21 0 1.417e-20 0 0 2.42222e-21 0 0 
1.85889e-21 0 0 -1.08745e-20 0 0 -1.85889e-21 0 
1.97147e-21 0 -1.15331e-20 0 0 -1.97147e-21 0 0 
1.89283e-21 0 1.1073e-20 0 0 1.89283e-21 0 0 
1.84929e-21 0 1.08184e-20 0 0 1.84929e-21 0 0 
1.89008e-21 0 -1.1057e-20 0 0 -1.89008e-21 0 0 
1.88111e-21 0 0 -1.10045e-20 0 0 -1.88111e-21 0 
1.93016e-21 0 0 1.12915e-20 0 0 1.93016e-21 0 
1.93162e-21 0 0 1.13e-20 0 0 1.93162e-21 0 
1.83585e-21 0 0 -1.07397e-20 0 0 -1.83585e-21 0 
2.47485e-21 0 -1.41066e-20 0 0 -2.47485e-21 0 0 
1.83327e-21 0 1.04496e-20 0 0 1.83327e-21 0 0 
1.81947e-21 0 0 -1.06439e-20 0 0 -1.81947e-21 0 
1.99186e-21 0 0 1.16524e-20 0 0 1.99186e-21 0 
1.82691e-21 0 -5.34372e-21 0 0 -1.82691e-21 0 0 
2.49772e-21 0 -1.46117e-20 0 0 -2.49772e-21 0 0 
2.50485e-21 0 1.46534e-20 0 0 2.50485e-21 0 0 
2.47678e-21 0 -1.44892e-20 0 0 -2.47678e-21 0 0 
2.53036e-21 0 1.48026e-20 0 0 2.53036e-21 0 0 
2.40682e-21 0 -1.37188e-20 0 0 -2.40682e-21 0 0 
1.90435e-21 0 1.08548e-20 0 0 1.90435e-21 0 0 
2.40583e-21 0 0 -1.40741e-20 0 0 -2.40583e-21 0 
2.42793e-21 0 0 1.42034e-20 0 0 2.42793e-21 0 
1.87642e-21 0 1.06956e-20 0 0 1.87642e-21 0 0 
2.5327e-21 0 -1.44364e-20 0 0 -2.5327e-21 0 0 
2.53893e-21 0 0 1.44719e-20 0 0 2.53893e-21 0 
2.49491e-21 0 0 -1.4221e-20 0 0 -2.49491e-21 0 
2.47916e-21 0 0 1.45031e-20 0 0 2.47916e-21 0 
1.84206e-21 0 5.38802e-21 0 0 1.84206e-21 0 0 
1.89822e-21 0 -1.08199e-20 0 0 -1.89822e-21 0 0 
2.48973e-21 0 1.41914e-20 0 0 2.48973e-21 0 0 
2.48725e-21 0 1.41773e-20 0 0 2.48725e-21 0 0 
2.46336e-21 0 -1.40412e-20 0 0 -2.46336e-21 0 0 
2.39691e-21 0 1.36624e-20 0 0 2.39691e-21 0 0 
2.43407e-21 0 -1.38742e-20 0 0 -2.43407e-21 0 0 
2.41597e-21 0 0 -1.3771e-20 0 0 -2.41597e-21 0 
2.4359e-21 0 0 1.38846e-20 0 0 2.4359e-21 0 
1.85413e-21 0 1.05685e-20 0 0 1.85413e-21 0 0 
2.47158e-21 0 -1.4088e-20 0 0 -2.47158e-21 0 0 
2.45785e-21 0 0 -1.40097e-20 0 0 -2.45785e-21 0 
2.45175e-21 0 0 1.3975e-20 0 0 2.45175e-21 0 
2.44661e-21 0 1.39457e-20 0 0 2.44661e-21 0 0 
1.87023e-21 0 -1.06603e-20 0 0 -1.87023e-21 0 0 
2.4579e-21 0 -1.401e-20 0 0 -2.4579e-21 0 0 
2.39701e-21 0 1.36629e-20 0 0 2.39701e-21 0 0 
2.5187e-21 0 0 -1.43566e-20 0 0 -2.5187e-21 0 
2.33805e-21 0 0 1.33269e-20 0 0 2.33805e-21 0 
2.43057e-21 0 0 -1.38542e-20 0 0 -2.43057e-21 0 
2.50801e-21 0 0 1.42957e-20 0 0 2.50801e-21 0 
2.44775e-21 0 0 1.39521e-20 0 0 2.44775e-21 0 
2.41443e-21 0 0 -1.37622e-20 0 0 -2.41443e-21 0 
2.63361e-21 0 -1.50116e-20 0 0 -2.63361e-21 0 0 
2.50179e-21 0 1.42602e-20 0 0 2.50179e-21 0 0 
2.43191e-21 0 0 1.38619e-20 0 0 2.43191e-21 0 
2.54628e-21 0 0 -1.45138e-20 0 0 -2.54628e-21 0 
2.43377e-21 0 0 -1.38725e-20 0 0 -2.43377e-21 0 
1.84079e-21 0 0 1.04925e-20 0 0 1.84079e-21 0 
2.49983e-21 0 1.4249e-20 0 0 2.49983e-21 0 0 
2.45671e-21 0 -1.40033e-20 0 0 -2.45671e-21 0 0 
2.48999e-21 0 -1.4193e-20 0 0 -2.48999e-21 0 0 
2.46911e-21 0 1.40739e-20 0 0 2.46911e-21 0 0 
2.48799e-21 0 0 1.41815e-20 0 0 2.48799e-21 0 
2.45307e-21 0 0 -1.39825e-20 0 0 -2.45307e-21 0 
2.51088e-21 0 1.4312e-20 0 0 2.51088e-21 0 0 
2.48888e-21 0 -1.41866e-20 0 0 -2.48888e-21 0 0 
2.38028e-21 0 0 1.35676e-20 0 0 2.38028e-21 0 
2.43491e-21 0 0 -1.3879e-20 0 0 -2.43491e-21 0 
1.42829e-21 -1.93586e-24 0 -1.01766e-21 -2.71699e-24 0 -1.42829e-21 1.26143e-34 
5.11559e-21 -6.27137e-23 -2.10724e-23 -9.42459e-22 -3.39569e-22 -1.14098e-22 -5.10303e-21 7.12589e-34 
3.12264e-21 -2.23815e-23 -9.84577e-24 -5.77526e-22 -1.20907e-22 -5.31877e-23 -3.11985e-21 2.08081e-34 
4.41444e-21 -5.43631e-23 -3.63687e-23 -7.9886e-22 -2.99404e-22 -2.003e-22 -4.39971e-21 -8.8392e-34 
1.05436e-21 -1.25482e-25 -3.77063e-28 -2.6359e-22 -5.01926e-25 -1.50825e-27 -1.05436e-21 -4.36544e-34 
5.40685e-22 -7.66012e-25 -4.01704e-24 -1.29871e-22 -3.18752e-24 -1.67157e-23 -5.40418e-22 -9.34985e-35 
1.38297e-21 -2.44477e-24 -7.73564e-24 -2.22937e-22 -1.51559e-23 -4.79556e-23 -1.38206e-21 9.94954e-35 
1.77616e-21 -5.79325e-24 -1.39712e-23 -3.20941e-22 -3.20257e-23 -7.72341e-23 -1.77419e-21 4.43614e-35 
3.47277e-21 -2.45261e-23 -1.09497e-23 -6.42281e-22 -1.32495e-22 -5.91526e-23 -3.46973e-21 5.37554e-34 
1.59952e-21 -8.94195e-24 -1.51302e-23 -2.87664e-22 -4.9628e-23 -8.39731e-23 -1.59654e-21 -4.81003e-34 
2.34937e-21 -2.2454e-23 -1.71689e-23 -4.26949e-22 -1.23287e-22 -9.42687e-23 -2.34424e-21 -1.23371e-34 
9.43683e-22 -1.46972e-24 -3.57467e-24 -3.08618e-22 -4.49371e-24 -1.09297e-23 -9.43609e-22 -4.80902e-34 
1.53022e-21 -4.43653e-24 -2.85323e-24 -2.52249e-22 -2.69075e-23 -1.73048e-23 -1.52989e-21 -4.76963e-34 
1.12788e-21 -1.55037e-24 -5.35555e-24 -1.35143e-22 -1.29282e-23 -4.46587e-23 -1.12693e-21 2.14132e-34 
1.10399e-21 -1.91559e-24 -3.1156e-24 -1.80292e-22 -1.17274e-23 -1.90739e-23 -1.10376e-21 -1.96511e-35 
0 0 0 0 0 0 0 0 
1.55095e-21 -5.0122e-24 8.13317e-24 -2.83766e-22 -2.73792e-23 4.44275e-23 -1.55007e-21 3.33147e-34 
1.55361e-21 -5.69322e-24 0 -5.53475e-22 -1.59801e-23 0 -1.55353e-21 2.52272e-34 
1.18929e-21 -1.51587e-25 3.81641e-24 -2.86498e-22 -6.29199e-25 1.58409e-23 -1.18918e-21 -1.46557e-34 
8.46199e-22 -1.19885e-24 6.28687e-24 -2.03254e-22 -4.98862e-24 2.61608e-23 -8.4578e-22 2.80495e-34 
2.87485e-21 -2.75085e-23 2.36847e-23 -5.20248e-22 -1.51641e-22 1.30562e-22 -2.86787e-21 2.12334e-34 
2.36217e-21 -1.67042e-23 8.6313e-24 -4.36091e-22 -9.03976e-23 4.67097e-23 -2.35998e-21 8.6854e-34 
2.2957e-21 -1.98641e-23 2.51651e-23 -4.10572e-22 -1.10733e-22 1.40283e-22 -2.28874e-21 3.5787e-34 
1.71248e-21 -8.56424e-24 1.07992e-23 -3.1235e-22 -4.69084e-23 5.91496e-23 -1.71082e-21 8.79065e-35 
8.27408e-22 -1.61055e-24 4.62809e-24 -1.33379e-22 -9.9842e-24 2.86906e-23 -8.2685e-22 2.58685e-34 
1.38602e-21 -2.40092e-24 2.58436e-24 -2.28479e-22 -1.4563e-23 1.56756e-23 -1.38586e-21 -3.50457e-34 
2.35863e-21 -2.20472e-23 0 -8.40263e-22 -6.18656e-23 0 -2.35782e-21 3.60284e-35 
1.18739e-21 -4.0301e-25 0 -8.46019e-22 -5.65628e-25 0 -1.18739e-21 1.44163e-34 
1.4091e-21 -2.32052e-24 8.27699e-24 -3.42729e-22 -9.53761e-24 3.40195e-23 -1.40866e-21 -1.3193e-34 
4.16564e-21 -4.9566e-23 0 -7.6153e-22 -2.70558e-22 0 -4.15684e-21 -7.35893e-34 
1.49622e-21 -2.02792e-24 1.06606e-21 0 -2.8462e-24 1.49622e-21 0 -1.57678e-34 
5.17161e-21 -6.34005e-23 9.5278e-22 -2.13031e-23 -3.43288e-22 5.15892e-21 -1.15348e-22 -1.99872e-34 
2.25412e-21 -1.61564e-23 4.16896e-22 -7.10731e-24 -8.72785e-23 2.25211e-21 -3.83943e-23 -5.89562e-34 
4.90978e-21 -6.04631e-23 8.885e-22 -4.04496e-23 -3.33e-22 4.8934e-21 -2.22776e-22 -1.0607e-34 
9.43601e-22 -1.123e-25 2.359e-22 -3.37453e-28 -4.49199e-25 9.436e-22 -1.34981e-27 -6.03458e-34 
1.0362e-21 -1.46803e-24 2.48893e-22 -7.69851e-24 -6.10875e-24 1.03569e-21 -3.20349e-23 -1.33569e-34 
1.39288e-21 -2.46229e-24 2.24534e-22 -7.79105e-24 -1.52645e-23 1.39196e-21 -4.82992e-23 -3.18385e-34 
1.41245e-21 -4.60694e-24 2.5522e-22 -1.11102e-23 -2.54676e-23 1.41088e-21 -6.14185e-23 -2.30679e-34 
3.00954e-21 -2.12546e-23 5.56608e-22 -9.48916e-24 -1.14822e-22 3.00691e-21 -5.12623e-23 -8.67022e-35 
1.84633e-21 -1.03217e-23 3.32052e-22 -1.74649e-23 -5.72858e-23 1.84289e-21 -9.69305e-23 -1.95964e-34 
2.74879e-21 -2.62714e-23 4.99536e-22 -2.00878e-23 -1.44248e-22 2.74279e-21 -1.10295e-22 -7.04977e-35 
1.0154e-21 -1.58141e-24 3.32072e-22 -3.84633e-24 -4.83522e-24 1.01532e-21 -1.17603e-23 2.84615e-34 
1.15947e-21 -3.36162e-24 1.91133e-22 -2.16193e-24 -2.03882e-23 1.15922e-21 -1.31121e-23 -4.86697e-35 
1.37089e-21 -1.8844e-24 1.6426e-22 -6.50941e-24 -1.57136e-23 1.36972e-21 -5.42805e-23 8.02994e-35 
1.08892e-21 -1.88945e-24 1.77832e-22 -3.07307e-24 -1.15673e-23 1.08869e-21 -1.88135e-23 1.17906e-34 
7.81697e-22 -2.47934e-25 1.46568e-23 0 -1.32213e-23 7.81585e-22 0 0 
1.58227e-21 -5.1134e-24 2.89495e-22 8.29739e-24 -2.7932e-23 1.58137e-21 4.53246e-23 8.76702e-36 
1.77043e-21 -6.48774e-24 6.30715e-22 0 -1.82102e-23 1.77033e-21 0 1.30641e-34 
8.47442e-22 -1.08015e-25 2.04148e-22 2.71944e-24 -4.48344e-25 8.47367e-22 1.12877e-23 -6.6617e-35 
9.57214e-22 -1.35613e-24 2.2992e-22 7.11166e-24 -5.64309e-24 9.5674e-22 2.95929e-23 -4.00708e-34 
2.39481e-21 -2.29152e-23 4.33378e-22 1.97299e-23 -1.2632e-22 2.389e-21 1.08761e-22 -3.53891e-35 
2.37465e-21 -1.67925e-23 4.38395e-22 8.6769e-24 -9.08752e-23 2.37245e-21 4.69565e-23 2.95304e-34 
2.22984e-21 -1.92942e-23 3.98792e-22 2.44431e-23 -1.07555e-22 2.22307e-21 1.36258e-22 -5.36806e-35 
1.94673e-21 -9.73575e-24 3.55077e-22 1.22764e-23 -5.3325e-23 1.94484e-21 6.72407e-23 4.0437e-34 
9.29065e-22 -1.80843e-24 1.49767e-22 5.1967e-24 -1.12109e-23 9.28438e-22 3.22156e-23 2.38786e-34 
1.46334e-21 -2.53485e-24 2.41225e-22 2.72852e-24 -1.53754e-23 1.46317e-21 1.65501e-23 -2.14168e-34 
2.47807e-21 -2.31636e-23 8.82813e-22 0 -6.49983e-23 2.47722e-21 0 5.26915e-34 
1.13363e-21 -3.84761e-25 8.07711e-22 0 -5.40016e-25 1.13363e-21 0 8.10918e-35 
8.92134e-22 -1.46917e-24 2.16989e-22 5.24035e-24 -6.03847e-24 8.91853e-22 2.15385e-23 -1.05544e-34 
4.80484e-21 -5.71718e-23 8.78386e-22 0 -3.12074e-22 4.7947e-21 0 -5.95723e-34 
1.39304e-21 -1.88807e-24 0 9.92539e-22 -2.64992e-24 0 1.39303e-21 -1.08122e-34 
4.19773e-21 -5.14614e-23 1.72915e-23 7.7336e-22 -2.78642e-22 9.36265e-23 4.18743e-21 -7.12589e-34 
2.98977e-21 -2.14292e-23 9.42682e-24 5.52952e-22 -1.15762e-22 5.09244e-23 2.98709e-21 -4.33501e-34 
5.46405e-21 -6.72889e-23 4.5016e-23 9.88803e-22 -3.70593e-22 2.47925e-22 5.44582e-21 1.03419e-33 
1.07979e-21 -1.28507e-25 3.86155e-28 2.69946e-22 -5.1403e-25 1.54462e-27 1.07978e-21 2.43951e-34 
1.14013e-21 -1.61527e-24 8.47064e-24 2.73856e-22 -6.72144e-24 3.52479e-23 1.13957e-21 -1.60283e-34 
1.36486e-21 -2.41275e-24 7.63431e-24 2.20017e-22 -1.49574e-23 4.73275e-23 1.36396e-21 5.96972e-35 
1.16722e-21 -3.80707e-24 9.18125e-24 2.10908e-22 -2.10459e-23 5.07549e-23 1.16592e-21 -2.48424e-34 
2.61184e-21 -1.84459e-23 8.2352e-24 4.83055e-22 -9.96483e-23 4.44882e-23 2.60956e-21 2.60107e-34 
1.68052e-21 -9.3948e-24 1.58965e-23 3.02232e-22 -5.21413e-23 8.82258e-23 1.67739e-21 -4.27558e-34 
2.64476e-21 -2.52771e-23 1.93275e-23 4.8063e-22 -1.38788e-22 1.06121e-22 2.63898e-21 -2.81991e-34 
1.20434e-21 -1.87568e-24 4.56205e-24 3.93863e-22 -5.73494e-24 1.39486e-23 1.20425e-21 3.04244e-34 
1.36036e-21 -3.94406e-24 2.53651e-24 2.24249e-22 -2.39207e-23 1.53839e-23 1.36007e-21 -3.99092e-34 
1.29074e-21 -1.77423e-24 6.12883e-24 1.54656e-22 -1.47949e-23 5.11069e-23 1.28964e-21 0 
1.22767e-21 -2.1302e-24 3.46464e-24 2.00491e-22 -1.30412e-23 2.12107e-23 1.22741e-21 7.86043e-35 
8.95832e-22 -2.84135e-25 0 1.67969e-23 -1.51517e-23 0 8.95704e-22 -1.71169e-34 
2.19928e-21 -7.1074e-24 -1.1533e-23 4.02385e-22 -3.88243e-23 -6.29991e-23 2.19803e-21 -2.27942e-34 
1.93044e-21 -7.07412e-24 0 6.8772e-22 -1.98561e-23 0 1.93034e-21 -6.487e-34 
8.41137e-22 -1.07212e-25 -2.69921e-24 2.0263e-22 -4.45009e-25 -1.12037e-23 8.41063e-22 -1.33234e-35 
1.27454e-21 -1.8057e-24 -9.46928e-24 3.06142e-22 -7.51386e-24 -3.94034e-23 1.27391e-21 0 
2.94544e-21 -2.81839e-23 -2.42662e-23 5.33023e-22 -1.55364e-22 -1.33768e-22 2.93829e-21 -3.8928e-34 
3.02255e-21 -2.13742e-23 -1.10443e-23 5.58007e-22 -1.1567e-22 -5.97682e-23 3.01975e-21 -5.21124e-35 
2.39142e-21 -2.06923e-23 -2.62143e-23 4.2769e-22 -1.15349e-22 -1.46132e-22 2.38416e-21 3.5787e-34 
1.47024e-21 -7.35275e-24 -9.27151e-24 2.68165e-22 -4.02728e-23 -5.07823e-23 1.46881e-21 8.79065e-35 
1.27832e-21 -2.48826e-24 -7.15025e-24 2.06067e-22 -1.54253e-23 -4.43261e-23 1.27746e-21 1.79089e-34 
1.37531e-21 -2.38237e-24 -2.56438e-24 2.26713e-22 -1.44504e-23 -1.55545e-23 1.37515e-21 -1.84963e-34 
2.28016e-21 -2.13137e-23 0 8.12308e-22 -5.98073e-23 0 2.27938e-21 2.7922e-34 
1.30198e-21 -4.41902e-25 0 9.27664e-22 -6.20213e-25 0 1.30198e-21 -1.35153e-35 
9.7636e-22 -1.60788e-24 -5.73509e-24 2.37475e-22 -6.60857e-24 -2.35719e-23 9.76053e-22 -5.27721e-35 
4.87807e-21 -5.8043e-23 0 8.91771e-22 -3.1683e-22 0 4.86777e-21 -6.13244e-35 
1.40998e-21 -1.91104e-24 -1.00461e-21 0 -2.68215e-24 -1.40998e-21 0 9.9112e-35 
5.39523e-21 -6.61419e-23 -9.93979e-22 2.22243e-23 -3.58132e-22 -5.38199e-21 1.20336e-22 8.69011e-35 
2.17694e-21 -1.56032e-23 -4.0262e-22 6.86394e-24 -8.42898e-23 -2.17499e-21 3.70796e-23 1.73401e-35 
4.50077e-21 -5.54263e-23 -8.14484e-22 3.708e-23 -3.0526e-22 -4.48576e-21 2.04218e-22 -1.94462e-34 
1.19527e-21 -1.42252e-25 -2.98818e-22 4.27456e-28 -5.69006e-25 -1.19527e-21 1.70982e-27 2.50371e-34 
9.00742e-22 -1.27612e-24 -2.16355e-22 6.6921e-24 -5.31017e-24 -9.00295e-22 2.78471e-23 1.82461e-50 
1.15931e-21 -2.04939e-24 -1.86883e-22 6.48459e-24 -1.27048e-23 -1.15855e-21 4.02e-23 1.98991e-35 
1.27987e-21 -4.1745e-24 -2.31264e-22 1.00674e-23 -2.30771e-23 -1.27845e-21 5.56534e-23 -8.87228e-35 
2.5796e-21 -1.82182e-23 -4.77092e-22 8.13354e-24 -9.84182e-23 -2.57735e-21 4.3939e-23 5.20213e-35 
1.65168e-21 -9.23357e-24 -2.97045e-22 1.56237e-23 -5.12465e-23 -1.64861e-21 8.67117e-23 -3.56298e-35 
2.99487e-21 -2.86233e-23 -5.44256e-22 2.18861e-23 -1.57161e-22 -2.98833e-21 1.2017e-22 -2.64366e-34 
1.11193e-21 -1.73175e-24 -3.6364e-22 4.21198e-24 -5.29487e-24 -1.11184e-21 1.28783e-23 1.37401e-34 
1.72228e-21 -4.99335e-24 -2.83908e-22 3.21133e-24 -3.02846e-23 -1.7219e-21 1.94766e-23 -5.84037e-35 
1.06761e-21 -1.46752e-24 -1.27921e-22 5.06934e-24 -1.22373e-23 -1.0667e-21 4.2272e-23 -8.02994e-35 
1.12181e-21 -1.94651e-24 -1.83203e-22 3.16589e-24 -1.19167e-23 -1.12158e-21 1.93817e-23 -1.57209e-34 
4.34385e-22 -1.37776e-25 -8.14473e-24 0 -7.34698e-24 -4.34323e-22 0 8.55845e-34 
1.48082e-21 -4.78557e-24 -2.70935e-22 -7.76542e-24 -2.61412e-23 -1.47999e-21 -4.24187e-23 -4.03283e-34 
1.89654e-21 -6.94988e-24 -6.75642e-22 0 -1.95074e-23 -1.89644e-21 0 2.16233e-34 
1.18671e-21 -1.51258e-25 -2.85877e-22 -3.80814e-24 -6.27834e-25 -1.1866e-21 -1.58066e-23 -4.13025e-34 
1.04445e-21 -1.47972e-24 -2.50874e-22 -7.7598e-24 -6.15739e-24 -1.04393e-21 -3.229e-23 1.86997e-34 
3.75573e-21 -3.59374e-23 -6.79657e-22 -3.09419e-23 -1.98105e-22 -3.74662e-21 -1.70568e-22 5.66225e-34 
2.1522e-21 -1.52194e-23 -3.97327e-22 -7.86407e-24 -8.23622e-23 -2.1502e-21 -4.25577e-23 4.69012e-34 
2.13423e-21 -1.84669e-23 -3.81693e-22 -2.33951e-23 -1.02944e-22 -2.12775e-21 -1.30416e-22 9.75197e-34 
2.46869e-21 -1.23461e-23 -4.50279e-22 -1.55679e-23 -6.76224e-23 -2.46629e-21 -8.52691e-23 2.28557e-34 
1.39539e-21 -2.71613e-24 -2.24939e-22 -7.80507e-24 -1.68379e-23 -1.39445e-21 -4.83855e-23 1.19393e-34 
1.79013e-21 -3.10093e-24 -2.95094e-22 -3.33785e-24 -1.88089e-23 -1.78992e-21 -2.0246e-23 -7.78793e-35 
2.54112e-21 -2.37529e-23 -9.05273e-22 0 -6.6652e-23 -2.54024e-21 0 4.0532e-35 
1.29221e-21 -4.38585e-25 -9.207e-22 0 -6.15558e-25 -1.29221e-21 0 -8.55969e-35 
1.14536e-21 -1.88619e-24 -2.7858e-22 -6.72778e-24 -7.75245e-24 -1.145e-21 -2.7652e-23 -1.3193e-34 
5.49013e-21 -6.53259e-23 -1.00366e-21 0 -3.56584e-22 -5.47854e-21 0 -1.03375e-33 
9.25824e-23 0 -7.73371e-23 -7.73371e-23 0 -6.54656e-23 -6.54656e-23 5.43432e-35 
0 0 0 0 0 0 0 0 
0 0 0 0 0 0 0 0 
0 0 0 0 0 0 0 0 
0 0 0 0 0 0 0 0 
0 0 0 0 0 0 0 0 
0 0 0 0 0 0 0 0 
0 0 0 0 0 0 0 0 
0 0 0 0 0 0 0 0 
0 0 0 0 0 0 0 0 
0 0 0 0 0 0 0 0 
0 0 0 0 0 0 0 0 
0 0 0 0 0 0 0 0 
0 0 0 0 0 0 0 0 
0 0 0 0 0 0 0 0 
0 0 0 0 0 0 0 0 
0 0 0 0 0 0 0 0 
0 0 0 0 0 0 0 0 
0 0 0 0 0 0 0 0 
0 0 0 0 0 0 0 0 
0 0 0 0 0 0 0 0 
0 0 0 0 0 0 0 0 
0 0 0 0 0 0 0 0 
0 0 0 0 0 0 0 0 
0 0 0 0 0 0 0 0 
0 0 0 0 0 0 0 0 
0 0 0 0 0 0 0 0 
0 0 0 0 0 0 0 0 
0 0 0 0 0 0 0 0 
0 0 0 0 0 0 0 0 
0 0 0 0 0 0 0 0 
0 0 0 0 0 0 0 0 
0 0 0 0 0 0 0 0 
0 0 0 0 0 0 0 0 
0 0 0 0 0 0 0 0 
0 0 0 0 0 0 0 0 
0 0 0 0 0 0 0 0 
0 0 0 0 0 0 0 0 
0 0 0 0 0 0 0 0 
0 0 0 0 0 0 0 0 
0 0 0 0 0 0 0 0 
0 0 0 0 0 0 0 0 
0 0 0 0 0 0 0 0 
0 0 0 0 0 0 0 0 
0 0 0 0 0 0 0 0 
0 0 0 0 0 0 0 0 
0 0 0 0 0 0 0 0 
1.03808e-22 0 8.67143e-23 8.67143e-23 0 7.34034e-23 7.34034e-23 3.80402e-35 
4.44169e-21 -1.81757e-22 -2.75444e-23 -1.02573e-21 -7.74717e-22 -1.17404e-22 -4.37203e-21 -1.58708e-33 
4.50494e-21 -2.73618e-22 -9.99141e-23 -1.51731e-21 -7.97811e-22 -2.91328e-22 -4.42415e-21 -1.18864e-33 
9.28657e-21 -3.39837e-22 -5.9764e-23 -1.90063e-21 -1.63376e-21 -2.87314e-22 -9.13722e-21 -9.10455e-34 
1.61317e-20 -4.84544e-22 -3.86632e-22 -1.9156e-21 -3.88224e-21 -3.09775e-21 -1.53481e-20 -1.90313e-33 
2.74537e-20 -4.55114e-22 -2.69113e-22 -1.83015e-21 -6.55884e-21 -3.87829e-21 -2.63751e-20 -9.71438e-34 
2.94112e-20 -5.17171e-22 -2.04766e-22 -2.12582e-21 -6.92213e-21 -2.74071e-21 -2.84533e-20 -2.57778e-34 
1.58371e-20 -2.59361e-22 -9.48895e-23 -1.16965e-21 -3.41779e-21 -1.25043e-21 -1.54133e-20 3.68002e-33 
5.68509e-21 -1.78533e-22 -4.99745e-23 -9.80689e-22 -1.01695e-21 -2.84662e-22 -5.58615e-21 7.49643e-34 
9.32432e-21 -3.24791e-22 -8.69486e-23 -1.74935e-21 -1.70007e-21 -4.5512e-22 -9.15673e-21 -7.56076e-34 
9.22803e-21 -2.96608e-22 -1.30829e-22 -1.57676e-21 -1.70034e-21 -7.49989e-22 -9.03897e-21 1.65609e-34 
6.9134e-21 -2.30509e-22 -1.16396e-22 -1.17681e-21 -1.32271e-21 -6.67902e-22 -6.75274e-21 7.36758e-35 
4.38129e-21 -1.01457e-22 -8.9438e-23 -5.04166e-22 -8.51571e-22 -7.5069e-22 -4.23167e-21 1.45486e-33 
9.26971e-21 -3.4791e-22 -2.01095e-22 -1.73879e-21 -1.80712e-21 -1.04453e-21 -9.03166e-21 -1.68396e-33 
1.38403e-20 -3.01452e-22 -1.05228e-22 -1.48435e-21 -2.74792e-21 -9.5922e-22 -1.35308e-20 4.24271e-33 
1.10592e-20 -3.05993e-22 -1.65081e-22 -1.44184e-21 -2.28162e-21 -1.23092e-21 -1.0751e-20 -3.59016e-34 
2.1031e-20 -3.53452e-22 -1.67579e-22 -1.44329e-21 -4.97102e-21 -2.35686e-21 -2.02986e-20 -4.06299e-33 
1.76075e-20 -2.74046e-22 -1.20498e-22 -1.2297e-21 -3.81259e-21 -1.67639e-21 -1.71078e-20 -3.43856e-33 
1.70439e-20 -5.24647e-22 -2.3341e-22 -2.38199e-21 -3.64948e-21 -1.62362e-21 -1.65693e-20 2.23281e-35 
8.66146e-21 -2.3618e-22 -1.60522e-22 -1.06589e-21 -1.85383e-21 -1.25997e-21 -8.36641e-21 4.53511e-34 
5.18136e-21 -1.20526e-22 -1.1523e-22 -5.55e-22 -1.07762e-21 -1.03026e-21 -4.96223e-21 -3.15694e-34 
7.57929e-21 -2.00749e-22 -1.7166e-22 -8.60963e-22 -1.68953e-21 -1.44471e-21 -7.24596e-21 -2.97162e-34 
1.52645e-20 -4.59827e-22 -2.73664e-22 -1.98723e-21 -3.41059e-21 -2.0298e-21 -1.47395e-20 6.42817e-34 
1.69613e-20 -2.87778e-22 -1.38656e-22 -1.18686e-21 -3.9713e-21 -1.91344e-21 -1.63785e-20 3.54368e-34 
1.44499e-20 -4.52631e-22 -2.82156e-22 -1.86349e-21 -3.3743e-21 -2.10344e-21 -1.3892e-20 1.79469e-33 
7.65785e-21 -2.10482e-22 -1.88905e-22 -8.58041e-22 -1.7841e-21 -1.6012e-21 -7.27295e-21 1.63246e-34 
3.53876e-21 -1.01951e-22 -4.70949e-23 -5.53939e-22 -6.38316e-22 -2.94861e-22 -3.4682e-21 9.84755e-34 
4.42976e-21 -9.79787e-23 -5.95205e-23 -5.20825e-22 -8.13853e-22 -4.94403e-22 -4.3262e-21 7.9988e-35 
1.36111e-20 -3.00274e-22 -7.39621e-23 -1.53372e-21 -2.61223e-21 -6.43434e-22 -1.33426e-20 2.5132e-33 
5.3599e-21 -8.7969e-23 -8.87407e-23 -4.03304e-22 -1.11673e-21 -1.12653e-21 -5.1198e-21 1.1002e-33 
6.86823e-21 -9.74553e-23 -1.1933e-22 -3.62403e-22 -1.69974e-21 -2.08126e-21 -6.32074e-21 -6.71811e-34 
1.10782e-20 -3.1502e-22 -2.89613e-22 -1.24289e-21 -2.6549e-21 -2.44078e-21 -1.04747e-20 1.89364e-34 
6.61783e-21 -2.39637e-22 -1.83921e-22 -1.15053e-21 -1.3332e-21 -1.02323e-21 -6.40088e-21 -1.10719e-33 
4.89169e-21 -1.45713e-22 8.02785e-23 -7.61414e-22 -9.14555e-22 5.03861e-22 -4.77895e-21 3.82785e-34 
1.05713e-20 -3.54492e-22 7.51584e-23 -1.98598e-21 -1.85631e-21 3.93569e-22 -1.03996e-20 -1.7481e-33 
1.23163e-20 -4.29133e-22 1.41449e-22 -2.30021e-21 -2.25467e-21 7.43176e-22 -1.20854e-20 1.12994e-33 
1.17597e-20 -2.50712e-22 8.96016e-23 -1.26449e-21 -2.28158e-21 8.15409e-22 -1.15074e-20 2.04478e-34 
1.82444e-20 -5.48968e-22 2.4969e-22 -2.54813e-21 -3.82491e-21 1.7397e-21 -1.7754e-20 1.85627e-33 
1.87304e-20 -2.75004e-22 1.38502e-22 -1.166e-21 -4.2712e-21 2.15114e-21 -1.81096e-20 3.63934e-33 
6.01735e-21 -2.53927e-22 7.42115e-23 -1.43172e-21 -1.04946e-21 3.0671e-22 -5.91718e-21 1.52561e-33 
9.72015e-21 -4.0049e-22 8.40058e-23 -2.23567e-21 -1.71278e-21 3.59269e-22 -9.56131e-21 -8.23665e-34 
5.92113e-21 -1.1759e-22 1.29217e-22 -4.52046e-22 -1.43669e-21 1.57874e-21 -5.52298e-21 -1.45105e-33 
3.44652e-20 -8.8756e-22 5.01298e-22 -3.41353e-21 -8.5867e-21 4.8498e-21 -3.30242e-20 -4.93759e-33 