ITEM: TIMESTEP
100
ITEM: NUMBER OF SURFS
6916
ITEM: BOX BOUNDS oo rr rr
-0.35 0.35
-0.25 0.25
-0.25 0.25
ITEM: SURFS f_save[1] f_save[2] f_save[3] f_save[4] f_save[5] f_save[6] f_save[7] f_save[8] 
7.36984 -5.52968e-05 0 0 -7.36984 0 0 0 
5.33318 -4.00155e-05 0 0 -5.33318 0 0 0 
0 0 0 0 0 0 0 0 
0.8667 -1.19068e-05 0.000260118 5.94751e-06 0 0.8667 0 86.439 
0.696182 -6.2747e-05 0.000208926 -2.72031e-05 0 0.696182 0 558.038 
0.868836 -4.51972e-05 -0.000260759 2.60035e-06 0 -0.868836 0 282.359 
0.608843 -2.5488e-05 -0.000182716 -8.96361e-06 0 -0.608843 0 184.022 
0 0 0 0 0 0 0 0 
0 0 0 0 0 0 0 0 
0 0 0 0 0 0 0 0 
0.178746 -4.54864e-05 6.19457e-06 0.000104566 0 0 0.178746 149.71 
0.138443 3.94291e-06 2.95598e-06 8.09893e-05 0 0 0.138443 -0.102025 
0 0 0 0 0 0 0 0 
14.0267 -3.41901e-05 0 0 -14.0267 0 0 0 
0 0 0 0 0 0 0 0 
0 0 0 0 0 0 0 0 
0 0 0 0 0 0 0 0 
0 0 0 0 0 0 0 0 
14.9462 -3.64315e-05 0 0 -14.9462 0 0 0 
21.6999 -5.28935e-05 0 0 -21.6999 0 0 0 
0 0 0 0 0 0 0 0 
0 0 0 0 0 0 0 0 
13.1207 -3.11617e-05 0 0 -13.1207 0 0 0 
9.33325 -2.21665e-05 0 0 -9.33325 0 0 0 
0 0 0 0 0 0 0 0 
0 0 0 0 0 0 0 0 
0 0 0 0 0 0 0 0 
0 0 0 0 0 0 0 0 
12.8421 -3.13026e-05 0 0 -12.8421 0 0 0 
23.1131 -5.63384e-05 0 0 -23.1131 0 0 0 
0 0 0 0 0 0 0 0 
0 0 0 0 0 0 0 0 
16.7159 -3.97003e-05 2.20135e-06 -7.21108e-07 -16.7159 0 0 13298.3 
0 0 0 0 0 0 0 0 
21.1033 -5.01204e-05 -1.87992e-06 -1.40862e-06 -21.1033 0 0 11924.3 
0 0 0 0 0 0 0 0 
0 0 0 0 0 0 0 0 
0 0 0 0 0 0 0 0 
12.8518 -3.05229e-05 0 0 -12.8518 0 0 0 
41.2809 -9.80421e-05 0 0 -41.2809 0 0 0 
0 0 0 0 0 0 0 0 
14.2121 -3.37539e-05 0 0 -14.2121 0 0 0 
28.7459 -6.82717e-05 0 0 -28.7459 0 0 0 
12.5377 -2.97771e-05 0 0 -12.5377 0 0 0 
7.43943 -1.76686e-05 -1.9428e-06 2.42729e-06 -7.43943 0 0 11753.6 
0 0 0 0 0 0 0 0 
29.1481 -7.10483e-05 -1.06517e-06 2.35988e-07 -29.1481 0 0 10912.7 
4.48199 -1.09248e-05 -1.40242e-06 -6.47846e-07 -4.48199 0 0 8033.32 
13.4653 -3.28218e-05 0 0 -13.4653 0 0 0 
13.3374 -3.25099e-05 0 0 -13.3374 0 0 0 
13.5378 -3.29983e-05 0 0 -13.5378 0 0 0 
8.3481 -2.03485e-05 0 0 -8.3481 0 0 0 
0 0 0 0 0 0 0 0 
0 0 0 0 0 0 0 0 
0 0 0 0 0 0 0 0 
0 0 0 0 0 0 0 0 
14.3914 -3.41795e-05 0 0 -14.3914 0 0 0 
0 0 0 0 0 0 0 0 
14.6774 -3.48588e-05 0 0 -14.6774 0 0 0 
28.7981 -6.83954e-05 0 0 -28.7981 0 0 0 
12.5203 -3.05183e-05 0 0 -12.5203 0 0 0 
12.029 -2.93207e-05 0 0 -12.029 0 0 0 
24.7893 -6.0424e-05 0 0 -24.7893 0 0 0 
27.9609 -6.81549e-05 0 0 -27.9609 0 0 0 
0 0 0 0 0 0 0 0 
0 0 0 0 0 0 0 0 
12.3923 -3.02064e-05 0 0 -12.3923 0 0 0 
0 0 0 0 0 0 0 0 
14.709 -3.49338e-05 0 0 -14.709 0 0 0 
0 0 0 0 0 0 0 0 
18.3396 -4.4703e-05 0 0 -18.3396 0 0 0 
0 0 0 0 0 0 0 0 
0 0 0 0 0 0 0 0 
0 0 0 0 0 0 0 0 
26.7164 -6.5121e-05 0 0 -26.7164 0 0 0 
13.5965 -3.31415e-05 -3.62117e-06 9.7371e-07 -13.5965 0 0 20542.1 
16.7647 -4.0864e-05 -1.82032e-07 9.89627e-07 -16.7647 0 0 5455.78 
12.4573 -3.03647e-05 0 0 -12.4573 0 0 0 
5.50724 -1.30797e-05 0 0 -5.50724 0 0 0 
27.3425 -6.49384e-05 0 0 -27.3425 0 0 0 
0 0 0 0 0 0 0 0 
0 0 0 0 0 0 0 0 
27.5535 -6.54396e-05 0 0 -27.5535 0 0 0 
9.79912 -2.3273e-05 0 0 -9.79912 0 0 0 
0 0 0 0 0 0 0 0 
13.5892 -3.22744e-05 0 0 -13.5892 0 0 0 
0 0 0 0 0 0 0 0 
13.9888 -3.32233e-05 0 0 -13.9888 0 0 0 
0 0 0 0 0 0 0 0 
12.3824 -3.01823e-05 0 0 -12.3824 0 0 0 
5.0774 -1.23762e-05 0 0 -5.0774 0 0 0 
13.1666 -3.20937e-05 0 0 -13.1666 0 0 0 
0 0 0 0 0 0 0 0 
0 0 0 0 0 0 0 0 
26.7636 -6.52364e-05 0 0 -26.7636 0 0 0 
38.4911 -9.38222e-05 2.90374e-06 1.70801e-06 -38.4911 0 0 21418.1 
29.7579 -7.06752e-05 -1.50962e-07 -1.74928e-06 -29.7579 0 0 10614.8 
4.74925 -1.12795e-05 1.64182e-06 -7.50137e-07 -4.74925 0 0 5958.31 
0 0 0 0 0 0 0 0 
0 0 0 0 0 0 0 0 
13.8517 -3.28978e-05 0 0 -13.8517 0 0 0 
34.9427 -8.29891e-05 -5.0212e-07 5.42018e-07 -34.9427 0 0 14903.1 
0 0 0 0 0 0 0 0 
13.2768 -3.15324e-05 0 0 -13.2768 0 0 0 
0 0 0 0 0 0 0 0 
0 0 0 0 0 0 0 0 
7.35423 -1.74663e-05 7.2581e-07 -5.19252e-07 -7.35423 0 0 12883.7 
0 0 0 0 0 0 0 0 
8.27533 -1.96539e-05 0 0 -8.27533 0 0 0 
0 0 0 0 0 0 0 0 
0 0 0 0 0 0 0 0 
0 0 0 0 0 0 0 0 
10.647 -2.52865e-05 0 0 -10.647 0 0 0 
14.3472 -3.40747e-05 0 0 -14.3472 0 0 0 
0 0 0 0 0 0 0 0 
3.06839 -7.28742e-06 1.19575e-05 -1.49993e-06 -3.06839 0 0 6035.06 
0 0 0 0 0 0 0 0 
0 0 0 0 0 0 0 0 
11.7548 -2.79177e-05 0 0 -11.7548 0 0 0 
0 0 0 0 0 0 0 0 
12.3025 -2.92184e-05 0 0 -12.3025 0 0 0 
0 0 0 0 0 0 0 0 
0 0 0 0 0 0 0 0 
0 0 0 0 0 0 0 0 
7.10977 -1.68857e-05 -7.84533e-07 -2.34425e-06 -7.10977 0 0 11385.1 
9.77446 -2.32144e-05 0 0 -9.77446 0 0 0 
16.9622 -4.13453e-05 0 0 -16.9622 0 0 0 
0 0 0 0 0 0 0 0 
0 0 0 0 0 0 0 0 
0 0 0 0 0 0 0 0 
0 0 0 0 0 0 0 0 
0 0 0 0 0 0 0 0 
14.1569 -3.45074e-05 0 0 -14.1569 0 0 0 
12.1709 -2.96667e-05 0 0 -12.1709 0 0 0 
0 0 0 0 0 0 0 0 
0 0 0 0 0 0 0 0 
0 0 0 0 0 0 0 0 
14.381 -3.41549e-05 0 0 -14.381 0 0 0 
0 0 0 0 0 0 0 0 
13.2533 -3.23049e-05 0 0 -13.2533 0 0 0 
0 0 0 0 0 0 0 0 
0 0 0 0 0 0 0 0 
21.5745 -5.12396e-05 7.26107e-08 3.59576e-07 -21.5745 0 0 11572.8 
14.2261 -3.37869e-05 0 0 -14.2261 0 0 0 
0 0 0 0 0 0 0 0 
19.5718 -4.77063e-05 -2.06993e-07 -3.29735e-06 -19.5718 0 0 12015.6 
0 0 0 0 0 0 0 0 
0 0 0 0 0 0 0 0 
11.1193 -2.64084e-05 0 0 -11.1193 0 0 0 
13.5063 -3.20774e-05 0 0 -13.5063 0 0 0 
37.6749 -9.18326e-05 0 0 -37.6749 0 0 0 
29.8626 -7.27901e-05 5.09001e-07 -1.06249e-06 -29.8626 0 0 11665.5 
0 0 0 0 0 0 0 0 
0 0 0 0 0 0 0 0 
0 0 0 0 0 0 0 0 
0 0 0 0 0 0 0 0 
12.9135 -3.06695e-05 0 0 -12.9135 0 0 0 
4.00993 -9.52361e-06 0 0 -4.00993 0 0 0 
0 0 0 0 0 0 0 0 
0 0 0 0 0 0 0 0 
13.5429 -3.30107e-05 0 0 -13.5429 0 0 0 
12.475 -3.04077e-05 0 0 -12.475 0 0 0 
13.9653 -3.40405e-05 0 0 -13.9653 0 0 0 
0 0 0 0 0 0 0 0 
0 0 0 0 0 0 0 0 
0 0 0 0 0 0 0 0 
0 0 0 0 0 0 0 0 
0 0 0 0 0 0 0 0 
3.4435 -8.17835e-06 1.85088e-06 -3.69134e-07 -3.4435 0 0 6436.08 
0 0 0 0 0 0 0 0 
0 0 0 0 0 0 0 0 
0 0 0 0 0 0 0 0 
12.548 -3.05857e-05 0 0 -12.548 0 0 0 
0 0 0 0 0 0 0 0 
20.2166 -4.80143e-05 1.79485e-06 -3.99675e-06 -20.2166 0 0 19282.7 
8.56653 -2.03455e-05 0 0 -8.56653 0 0 0 
0 0 0 0 0 0 0 0 
0 0 0 0 0 0 0 0 
18.0115 -4.27773e-05 -1.08301e-06 1.87043e-07 -18.0115 0 0 11309.2 
0 0 0 0 0 0 0 0 
19.6961 -4.67785e-05 0 0 -19.6961 0 0 0 
14.5051 -3.44497e-05 0 0 -14.5051 0 0 0 
0 0 0 0 0 0 0 0 
0 0 0 0 0 0 0 0 
0 0 0 0 0 0 0 0 
12.9185 -3.06816e-05 0 0 -12.9185 0 0 0 
14.0923 -3.3469e-05 0 0 -14.0923 0 0 0 
14.2182 -3.37682e-05 0 0 -14.2182 0 0 0 
0 0 0 0 0 0 0 0 
0 0 0 0 0 0 0 0 
0 0 0 0 0 0 0 0 
7.88576 -1.87288e-05 9.57587e-07 5.95925e-07 -7.88576 0 0 13233.9 
0 0 0 0 0 0 0 0 
0 0 0 0 0 0 0 0 
39.3395 -9.34315e-05 0 0 -39.3395 0 0 0 
0 0 0 0 0 0 0 0 
0 0 0 0 0 0 0 0 
0 0 0 0 0 0 0 0 
0 0 0 0 0 0 0 0 
0 0 0 0 0 0 0 0 
12.6245 -2.99832e-05 0 0 -12.6245 0 0 0 
0 0 0 0 0 0 0 0 
0 0 0 0 0 0 0 0 
0 0 0 0 0 0 0 0 
0 0 0 0 0 0 0 0 
0 0 0 0 0 0 0 0 
0 0 0 0 0 0 0 0 
0 0 0 0 0 0 0 0 
0 0 0 0 0 0 0 0 
0 0 0 0 0 0 0 0 
0 0 0 0 0 0 0 0 
13.5198 -3.21094e-05 0 0 -13.5198 0 0 0 
0 0 0 0 0 0 0 0 
0 0 0 0 0 0 0 0 
28.795 -6.83881e-05 0 0 -28.795 0 0 0 
13.1349 -3.11955e-05 0 0 -13.1349 0 0 0 
0 0 0 0 0 0 0 0 
0 0 0 0 0 0 0 0 
0 0 0 0 0 0 0 0 
0 0 0 0 0 0 0 0 
7.56563 -1.79684e-05 -4.52306e-06 6.88514e-07 -7.56563 0 0 13682.1 
0 0 0 0 0 0 0 0 
0 0 0 0 0 0 0 0 
0 0 0 0 0 0 0 0 
0 0 0 0 0 0 0 0 
47.629 -0.000113119 2.70206e-07 -4.24649e-07 -47.629 0 0 10533.7 
15.1133 -3.58941e-05 0 0 -15.1133 0 0 0 
0 0 0 0 0 0 0 0 
0 0 0 0 0 0 0 0 
0 0 0 0 0 0 0 0 
28.7401 -6.8258e-05 0 0 -28.7401 0 0 0 
4.86075 -1.15443e-05 0 0 -4.86075 0 0 0 
13.0978 -3.11074e-05 0 0 -13.0978 0 0 0 
7.30453 -1.73483e-05 -1.97758e-06 1.12511e-06 -7.30453 0 0 11807.6 
0 0 0 0 0 0 0 0 
0 0 0 0 0 0 0 0 
0 0 0 0 0 0 0 0 
0 0 0 0 0 0 0 0 
0 0 0 0 0 0 0 0 
0 0 0 0 0 0 0 0 
28.2196 -6.70218e-05 0 0 -28.2196 0 0 0 
0 0 0 0 0 0 0 0 
0 0 0 0 0 0 0 0 
5.55092 -1.35304e-05 -3.23227e-06 3.33425e-06 -5.55092 0 0 9266.17 
0 0 0 0 0 0 0 0 
0 0 0 0 0 0 0 0 
14.2125 -3.37549e-05 -3.17124e-08 -1.06791e-07 -14.2125 0 0 3811.71 
0 0 0 0 0 0 0 0 
0 0 0 0 0 0 0 0 
13.9339 -3.30931e-05 0 0 -13.9339 0 0 0 
0 0 0 0 0 0 0 0 
0 0 0 0 0 0 0 0 
0 0 0 0 0 0 0 0 
20.9104 -5.09692e-05 0 0 -20.9104 0 0 0 
9.33942 -2.21812e-05 0 0 -9.33942 0 0 0 
0 0 0 0 0 0 0 0 
0 0 0 0 0 0 0 0 
0 0 0 0 0 0 0 0 
13.2047 -3.13613e-05 0 0 -13.2047 0 0 0 
0 0 0 0 0 0 0 0 
12.8376 -3.04892e-05 0 0 -12.8376 0 0 0 
0 0 0 0 0 0 0 0 
0 0 0 0 0 0 0 0 
0 0 0 0 0 0 0 0 
0 0 0 0 0 0 0 0 
19.9222 -4.73153e-05 -1.12719e-06 1.8538e-06 -19.9222 0 0 12339 
7.66896 -1.82138e-05 -1.84071e-06 -1.03967e-06 -7.66896 0 0 13825.9 
0 0 0 0 0 0 0 0 
0 0 0 0 0 0 0 0 
0 0 0 0 0 0 0 0 
11.6856 -2.77534e-05 0 0 -11.6856 0 0 0 
14.0283 -3.33172e-05 0 0 -14.0283 0 0 0 
13.7472 -3.26499e-05 0 0 -13.7472 0 0 0 
0 0 0 0 0 0 0 0 
267.817 -3.34773e-05 0 0 -267.817 0 0 0 
0 0 0 0 0 0 0 0 
0 0 0 0 0 0 0 0 
13.5384 -3.21538e-05 0 0 -13.5384 0 0 0 
0 0 0 0 0 0 0 0 
28.2783 -6.7161e-05 0 0 -28.2783 0 0 0 
0 0 0 0 0 0 0 0 
0 0 0 0 0 0 0 0 
0 0 0 0 0 0 0 0 
0 0 0 0 0 0 0 0 
13.097 -3.11052e-05 0 0 -13.097 0 0 0 
7.41756 -1.76167e-05 4.9289e-07 1.01041e-06 -7.41756 0 0 12195.7 
0 0 0 0 0 0 0 0 
0 0 0 0 0 0 0 0 
9.04132 -2.14732e-05 0 0 -9.04132 0 0 0 
40.4269 -9.60141e-05 0 0 -40.4269 0 0 0 
0 0 0 0 0 0 0 0 
0 0 0 0 0 0 0 0 
0 0 0 0 0 0 0 0 
0 0 0 0 0 0 0 0 
4.59849 -1.09214e-05 -7.00353e-07 1.46253e-06 -4.59849 0 0 7514.7 
0 0 0 0 0 0 0 0 
0 0 0 0 0 0 0 0 
0 0 0 0 0 0 0 0 
0 0 0 0 0 0 0 0 
13.2587 -3.14895e-05 0 0 -13.2587 0 0 0 
0 0 0 0 0 0 0 0 
0 0 0 0 0 0 0 0 
157.431 -1.96789e-05 -7.63881e-07 -1.35285e-06 -157.431 0 0 256752 
0 0 0 0 0 0 0 0 
7.78211 -1.84825e-05 -6.61048e-07 1.11955e-06 -7.78211 0 0 11920.3 
0 0 0 0 0 0 0 0 
0 0 0 0 0 0 0 0 
13.0635 -3.10258e-05 0 0 -13.0635 0 0 0 
0 0 0 0 0 0 0 0 
0 0 0 0 0 0 0 0 
9.44917 -2.24417e-05 0 0 -9.44917 0 0 0 
9.31782 -2.21298e-05 0 0 -9.31782 0 0 0 
0 0 0 0 0 0 0 0 
0 0 0 0 0 0 0 0 
0 0 0 0 0 0 0 0 
0 0 0 0 0 0 0 0 
12.6029 -2.9932e-05 0 0 -12.6029 0 0 0 
12.2937 -2.91976e-05 0 0 -12.2937 0 0 0 
0 0 0 0 0 0 0 0 
0 0 0 0 0 0 0 0 
12.8817 -3.05941e-05 0 0 -12.8817 0 0 0 
35.8383 -8.51162e-05 9.89211e-07 -1.67494e-06 -35.8383 0 0 12355.7 
0 0 0 0 0 0 0 0 
0 0 0 0 0 0 0 0 
14.2037 -3.37338e-05 0 0 -14.2037 0 0 0 
12.9407 -3.07342e-05 0 0 -12.9407 0 0 0 
0 0 0 0 0 0 0 0 
0 0 0 0 0 0 0 0 
0 0 0 0 0 0 0 0 
15.0752 -3.58036e-05 -2.65502e-06 -1.35645e-06 -15.0752 0 0 18011.4 
0 0 0 0 0 0 0 0 
0 0 0 0 0 0 0 0 
13.7992 -3.36358e-05 0 0 -13.7992 0 0 0 
0 0 0 0 0 0 0 0 
9.05584 -0.00446389 6.05886e-06 -1.33213e-05 -9.05584 0 0 1685.76 
8.0128 -0.000390624 0 0 -8.0128 0 0 0 
13.0576 -3.26441e-05 0 0 -13.0576 0 0 0 
9.49761 -0.000451137 -4.92406e-08 4.07371e-06 -9.49761 0 0 1211.35 
11.8757 -2.96894e-05 0 0 -11.8757 0 0 0 
6.35201 -0.00030172 3.77381e-06 -3.84021e-06 -6.35201 0 0 1044.81 
7.61284 -1.90321e-05 0 0 -7.61284 0 0 7.24533e-12 
8.90552 -0.000423012 1.90667e-06 1.54168e-06 -8.90552 0 0 1192.48 
26.5978 -6.64946e-05 0 0 -26.5978 0 0 0 
8.97917 -0.00042651 2.80489e-06 1.16989e-06 -8.97917 0 0 572.509 
5.68694 -1.42174e-05 0 0 -5.68694 0 0 0 
11.4939 -0.000545961 4.39771e-06 5.53494e-06 -11.4939 0 0 3531.01 
0 0 0 0 0 0 0 0 
7.1701 -0.00034058 1.17879e-06 8.37113e-07 -7.1701 0 0 531.05 
25.1963 -6.2991e-05 0 0 -25.1963 0 0 2.29435e-11 
6.14089 -0.000299368 1.4338e-06 4.36893e-07 -6.14089 0 0 1615.51 
8.44934 -0.00368696 -1.01868e-05 -2.14061e-06 -8.44934 0 0 1252.29 
7.47464 -0.000521064 -4.77756e-06 3.71602e-06 -7.47464 0 0 653.742 
11.0115 -0.000946991 -7.48272e-06 -2.75916e-07 -11.0115 0 0 2151.56 
11.6537 -0.00100221 -6.27376e-07 -2.96721e-06 -11.6537 0 0 1524.95 
7.95873 -0.000387988 -4.30578e-06 8.08545e-07 -7.95873 0 0 1575.92 
0 0 0 0 0 0 0 0 
10.4296 -0.000495405 -7.6564e-07 6.67788e-07 -10.4296 0 0 2560.03 
0 0 0 0 0 0 0 0 
6.13745 -0.000291529 5.45577e-07 2.01031e-07 -6.13745 0 0 780.136 
7.03395 -1.75849e-05 1.02655e-06 -1.22343e-06 -7.03395 0 0 7010.53 
9.48864 -0.00045071 5.33128e-07 -2.80488e-06 -9.48864 0 0 1367.93 
12.4704 -3.1176e-05 0 0 -12.4704 0 0 0 
7.48417 -0.000355498 9.68569e-07 2.09796e-06 -7.48417 0 0 600.005 
0 0 0 0 0 0 0 0 
13.16 -0.0006251 1.28359e-06 -3.4696e-06 -13.16 0 0 1717.67 
0 0 0 0 0 0 0 0 
7.90761 -0.000375612 -3.5585e-06 6.5545e-06 -7.90761 0 0 1955.17 
10.955 -2.73876e-05 0 0 -10.955 0 0 9.6604e-12 
7.57898 -0.000369475 1.12517e-06 1.76981e-06 -7.57898 0 0 1171.92 
10.6546 -0.000519413 1.32367e-05 -4.46509e-06 -10.6546 0 0 1340.83 
9.74419 -0.00480319 1.20001e-05 6.76978e-06 -9.74419 0 0 2405.75 
10.0072 -0.000860621 -2.33585e-08 -2.34531e-06 -10.0072 0 0 1031.64 
9.66671 -0.000831338 9.57883e-07 1.83865e-06 -9.66671 0 0 1239.34 
6.2516 -8.21595e-05 8.02592e-07 -5.31244e-07 -6.2516 0 0 4214.92 
6.38024 -0.000311037 2.28717e-06 -6.23522e-07 -6.38024 0 0 1767.48 
0 0 0 0 0 0 0 0 
5.90327 -0.000280405 -2.64178e-06 -1.78932e-06 -5.90327 0 0 3496.93 
7.02324 -1.75581e-05 -1.39365e-06 2.03545e-07 -7.02324 0 0 11052.6 
7.44335 -0.000353559 -6.39019e-07 2.54086e-06 -7.44335 0 0 3642.92 
0 0 0 0 0 0 0 0 
5.36316 -0.00025475 1.23559e-09 -2.81869e-06 -5.36316 0 0 759.283 
14.3852 -3.59631e-05 0 0 -14.3852 0 0 0 
13.7641 -0.000653795 -1.91631e-06 -1.0262e-06 -13.7641 0 0 531.521 
12.0317 -3.00792e-05 0 0 -12.0317 0 0 9.66044e-12 
13.6684 -0.00064925 -5.10745e-06 -1.41641e-06 -13.6684 0 0 3905.87 
0 0 0 0 0 0 0 0 
10.0426 -0.000477026 -1.91003e-07 -1.31432e-06 -10.0426 0 0 3017.59 
0 0 0 0 0 0 0 0 
6.94961 -0.000338793 -5.54247e-06 4.02886e-06 -6.94961 0 0 586.692 
8.83974 -0.00435736 -1.68244e-06 1.20703e-05 -8.83974 0 0 1429.27 
0 0 0 0 0 0 0 0 
9.19335 -0.000436684 8.1396e-07 -1.70843e-06 -9.19335 0 0 620.18 
12.5003 -3.12508e-05 0 0 -12.5003 0 0 0 
9.41047 -0.000446997 -5.70239e-06 1.66221e-06 -9.41047 0 0 997.172 
11.7782 -2.94455e-05 0 0 -11.7782 0 0 9.66044e-12 
10.0232 -0.000476104 2.53514e-06 -2.89221e-06 -10.0232 0 0 3069.93 
0 0 0 0 0 0 0 0 
12.3801 -0.000588053 -7.6747e-06 -5.80571e-06 -12.3801 0 0 2914.48 
25.4238 -6.35597e-05 0 0 -25.4238 0 0 0 
6.51024 -0.000309236 4.61175e-06 -8.24108e-07 -6.51024 0 0 1760.13 
7.09676 -1.77419e-05 -1.94187e-06 -9.98726e-07 -7.09676 0 0 12945.6 
6.02751 -0.000286307 1.98462e-06 1.51201e-06 -6.02751 0 0 1077.54 
10.1376 -2.53441e-05 0 0 -10.1376 0 0 8.45285e-12 
5.77657 -0.000281608 2.41885e-06 3.64676e-07 -5.77657 0 0 1137.27 
0.0538017 -2.184e-05 3.1474e-05 -2.13998e-07 0 0.0538017 0 63.0698 
0.078677 -1.49019e-05 2.3013e-05 -1.26654e-06 0 0.078677 0 105.466 
0 0 0 0 0 0 0 0 
0 0 0 0 0 0 0 0 
0 0 0 0 0 0 0 0 
0 0 0 0 0 0 0 0 
0 0 0 0 0 0 0 0 
0 0 0 0 0 0 0 0 
0 0 0 0 0 0 0 0 
0 0 0 0 0 0 0 0 
0 0 0 0 0 0 0 0 
0 0 0 0 0 0 0 0 
0 0 0 0 0 0 0 0 
0 0 0 0 0 0 0 0 
0 0 0 0 0 0 0 0 
0 0 0 0 0 0 0 0 
0 0 0 0 0 0 0 0 
0 0 0 0 0 0 0 0 
0 0 0 0 0 0 0 0 
0 0 0 0 0 0 0 0 
0 0 0 0 0 0 0 0 
0 0 0 0 0 0 0 0 
0 0 0 0 0 0 0 0 
0 0 0 0 0 0 0 0 
0 0 0 0 0 0 0 0 
0 0 0 0 0 0 0 0 
0 0 0 0 0 0 0 0 
0 0 0 0 0 0 0 0 
6.98316 1.6585e-05 -5.21505e-07 -1.18407e-06 6.98316 0 0 9996.64 
0 0 0 0 0 0 0 0 
0 0 0 0 0 0 0 0 
0 0 0 0 0 0 0 0 
0 0 0 0 0 0 0 0 
0 0 0 0 0 0 0 0 
0 0 0 0 0 0 0 0 
0 0 0 0 0 0 0 0 
0 0 0 0 0 0 0 0 
0 0 0 0 0 0 0 0 
5.59309 1.43323e-05 0 0 5.59309 0 0 0 
0 0 0 0 0 0 0 0 
0 0 0 0 0 0 0 0 
0 0 0 0 0 0 0 0 
0 0 0 0 0 0 0 0 
0 0 0 0 0 0 0 0 
0 0 0 0 0 0 0 0 
0 0 0 0 0 0 0 0 
0 0 0 0 0 0 0 0 
0 0 0 0 0 0 0 0 
0 0 0 0 0 0 0 0 
0 0 0 0 0 0 0 0 
0 0 0 0 0 0 0 0 
0 0 0 0 0 0 0 0 
0 0 0 0 0 0 0 0 
0 0 0 0 0 0 0 0 
0 0 0 0 0 0 0 0 
0 0 0 0 0 0 0 0 
0 0 0 0 0 0 0 0 
0 0 0 0 0 0 0 0 
0 0 0 0 0 0 0 0 
0 0 0 0 0 0 0 0 
0 0 0 0 0 0 0 0 
0 0 0 0 0 0 0 0 
0 0 0 0 0 0 0 0 
0 0 0 0 0 0 0 0 
0 0 0 0 0 0 0 0 
0 0 0 0 0 0 0 0 
0 0 0 0 0 0 0 0 
0 0 0 0 0 0 0 0 
0 0 0 0 0 0 0 0 
0 0 0 0 0 0 0 0 
0 0 0 0 0 0 0 0 
0 0 0 0 0 0 0 0 
0 0 0 0 0 0 0 0 
0 0 0 0 0 0 0 0 
0 0 0 0 0 0 0 0 
0 0 0 0 0 0 0 0 
0 0 0 0 0 0 0 0 
0 0 0 0 0 0 0 0 
0 0 0 0 0 0 0 0 
0 0 0 0 0 0 0 0 
0 0 0 0 0 0 0 0 
0 0 0 0 0 0 0 0 
0 0 0 0 0 0 0 0 
0 0 0 0 0 0 0 0 
0 0 0 0 0 0 0 0 
0 0 0 0 0 0 0 0 
0 0 0 0 0 0 0 0 
0 0 0 0 0 0 0 0 
8.14841 1.93525e-05 0 0 8.14841 0 0 0 
0 0 0 0 0 0 0 0 
0 0 0 0 0 0 0 0 
0 0 0 0 0 0 0 0 
0 0 0 0 0 0 0 0 
0 0 0 0 0 0 0 0 
0 0 0 0 0 0 0 0 
0 0 0 0 0 0 0 0 
0 0 0 0 0 0 0 0 
0 0 0 0 0 0 0 0 
0 0 0 0 0 0 0 0 
0 0 0 0 0 0 0 0 
0 0 0 0 0 0 0 0 
0 0 0 0 0 0 0 0 
0 0 0 0 0 0 0 0 
0 0 0 0 0 0 0 0 
0 0 0 0 0 0 0 0 
0 0 0 0 0 0 0 0 
0 0 0 0 0 0 0 0 
0 0 0 0 0 0 0 0 
0 0 0 0 0 0 0 0 
0 0 0 0 0 0 0 0 
0 0 0 0 0 0 0 0 
0 0 0 0 0 0 0 0 
0 0 0 0 0 0 0 0 
0 0 0 0 0 0 0 0 
0 0 0 0 0 0 0 0 
0 0 0 0 0 0 0 0 
0 0 0 0 0 0 0 0 
0 0 0 0 0 0 0 0 
0 0 0 0 0 0 0 0 
0 0 0 0 0 0 0 0 
0 0 0 0 0 0 0 0 
0 0 0 0 0 0 0 0 
0 0 0 0 0 0 0 0 
0 0 0 0 0 0 0 0 
0 0 0 0 0 0 0 0 
0 0 0 0 0 0 0 0 
0 0 0 0 0 0 0 0 
0 0 0 0 0 0 0 0 
0 0 0 0 0 0 0 0 
0 0 0 0 0 0 0 0 
0 0 0 0 0 0 0 0 
0 0 0 0 0 0 0 0 
0 0 0 0 0 0 0 0 
0 0 0 0 0 0 0 0 
0 0 0 0 0 0 0 0 
0 0 0 0 0 0 0 0 
0 0 0 0 0 0 0 0 
12.868 3.05615e-05 0 0 12.868 0 0 0 
0 0 0 0 0 0 0 0 
0 0 0 0 0 0 0 0 
0 0 0 0 0 0 0 0 
0 0 0 0 0 0 0 0 
0 0 0 0 0 0 0 0 
0 0 0 0 0 0 0 0 
0 0 0 0 0 0 0 0 
0 0 0 0 0 0 0 0 
0 0 0 0 0 0 0 0 
0 0 0 0 0 0 0 0 
0 0 0 0 0 0 0 0 
0 0 0 0 0 0 0 0 
0 0 0 0 0 0 0 0 
0 0 0 0 0 0 0 0 
0 0 0 0 0 0 0 0 
0 0 0 0 0 0 0 0 
0 0 0 0 0 0 0 0 
0 0 0 0 0 0 0 0 
0 0 0 0 0 0 0 0 
0 0 0 0 0 0 0 0 
0 0 0 0 0 0 0 0 
0 0 0 0 0 0 0 0 
0 0 0 0 0 0 0 0 
0 0 0 0 0 0 0 0 
0 0 0 0 0 0 0 0 
0 0 0 0 0 0 0 0 
0 0 0 0 0 0 0 0 
0 0 0 0 0 0 0 0 
0 0 0 0 0 0 0 0 
0 0 0 0 0 0 0 0 
0 0 0 0 0 0 0 0 
0 0 0 0 0 0 0 0 
0 0 0 0 0 0 0 0 
0 0 0 0 0 0 0 0 
0 0 0 0 0 0 0 0 
0 0 0 0 0 0 0 0 
0 0 0 0 0 0 0 0 
0 0 0 0 0 0 0 0 
0 0 0 0 0 0 0 0 
0 0 0 0 0 0 0 0 
0 0 0 0 0 0 0 0 
0 0 0 0 0 0 0 0 
0 0 0 0 0 0 0 0 
0 0 0 0 0 0 0 0 
0 0 0 0 0 0 0 0 
0 0 0 0 0 0 0 0 
0 0 0 0 0 0 0 0 
0 0 0 0 0 0 0 0 
0 0 0 0 0 0 0 0 
0 0 0 0 0 0 0 0 
0 0 0 0 0 0 0 0 
0 0 0 0 0 0 0 0 
0 0 0 0 0 0 0 0 
0 0 0 0 0 0 0 0 
0 0 0 0 0 0 0 0 
0 0 0 0 0 0 0 0 
0 0 0 0 0 0 0 0 
0 0 0 0 0 0 0 0 
0 0 0 0 0 0 0 0 
0 0 0 0 0 0 0 0 
0 0 0 0 0 0 0 0 
0 0 0 0 0 0 0 0 
0 0 0 0 0 0 0 0 
0 0 0 0 0 0 0 0 
0 0 0 0 0 0 0 0 
0 0 0 0 0 0 0 0 
0 0 0 0 0 0 0 0 
0 0 0 0 0 0 0 0 
0 0 0 0 0 0 0 0 
0 0 0 0 0 0 0 0 
0 0 0 0 0 0 0 0 
0 0 0 0 0 0 0 0 
0 0 0 0 0 0 0 0 
0 0 0 0 0 0 0 0 
0 0 0 0 0 0 0 0 
0 0 0 0 0 0 0 0 
0 0 0 0 0 0 0 0 
0 0 0 0 0 0 0 0 
0 0 0 0 0 0 0 0 
0 0 0 0 0 0 0 0 
0 0 0 0 0 0 0 0 
0 0 0 0 0 0 0 0 
0 0 0 0 0 0 0 0 
0 0 0 0 0 0 0 0 
0 0 0 0 0 0 0 0 
0 0 0 0 0 0 0 0 
0 0 0 0 0 0 0 0 
0 0 0 0 0 0 0 0 
0 0 0 0 0 0 0 0 
0 0 0 0 0 0 0 0 
0 0 0 0 0 0 0 0 
0 0 0 0 0 0 0 0 
0 0 0 0 0 0 0 0 
0 0 0 0 0 0 0 0 
0 0 0 0 0 0 0 0 
0 0 0 0 0 0 0 0 
0 0 0 0 0 0 0 0 
0 0 0 0 0 0 0 0 
0 0 0 0 0 0 0 0 
0 0 0 0 0 0 0 0 
0 0 0 0 0 0 0 0 
0 0 0 0 0 0 0 0 
0 0 0 0 0 0 0 0 
0 0 0 0 0 0 0 0 
0 0 0 0 0 0 0 0 
0 0 0 0 0 0 0 0 
0 0 0 0 0 0 0 0 
0 0 0 0 0 0 0 0 
0 0 0 0 0 0 0 0 
0 0 0 0 0 0 0 0 
0 0 0 0 0 0 0 0 
0 0 0 0 0 0 0 0 
0 0 0 0 0 0 0 0 
0 0 0 0 0 0 0 0 
0 0 0 0 0 0 0 0 
0 0 0 0 0 0 0 0 
0 0 0 0 0 0 0 0 
0 0 0 0 0 0 0 0 
0 0 0 0 0 0 0 0 
0 0 0 0 0 0 0 0 
0 0 0 0 0 0 0 0 
0 0 0 0 0 0 0 0 
0 0 0 0 0 0 0 0 
2.43251 5.92926e-06 0 0 2.43251 0 0 0 
0 0 0 0 0 0 0 0 
0 0 0 0 0 0 0 0 
0 0 0 0 0 0 0 0 
0 0 0 0 0 0 0 0 
0 0 0 0 0 0 0 0 
0 0 0 0 0 0 0 0 
0 0 0 0 0 0 0 0 
0 0 0 0 0 0 0 0 
0 0 0 0 0 0 0 0 
0 0 0 0 0 0 0 0 
0 0 0 0 0 0 0 0 
0 0 0 0 0 0 0 0 
0 0 0 0 0 0 0 0 
0 0 0 0 0 0 0 0 
0 0 0 0 0 0 0 0 
0 0 0 0 0 0 0 0 
0 0 0 0 0 0 0 0 
0 0 0 0 0 0 0 0 
0 0 0 0 0 0 0 0 
0 0 0 0 0 0 0 0 
0 0 0 0 0 0 0 0 
0 0 0 0 0 0 0 0 
0 0 0 0 0 0 0 0 
0 0 0 0 0 0 0 0 
0 0 0 0 0 0 0 0 
0 0 0 0 0 0 0 0 
0 0 0 0 0 0 0 0 
0 0 0 0 0 0 0 0 
0 0 0 0 0 0 0 0 
0 0 0 0 0 0 0 0 
0 0 0 0 0 0 0 0 
0 0 0 0 0 0 0 0 
0 0 0 0 0 0 0 0 
3.63856 8.64163e-06 5.69008e-06 1.52993e-06 3.63856 0 0 4112.15 
0 0 0 0 0 0 0 0 
0.402422 9.80907e-07 0 0 0.402422 0 0 0 
0 0 0 0 0 0 0 0 
0 0 0 0 0 0 0 0 
0 0 0 0 0 0 0 0 
0 0 0 0 0 0 0 0 
0 0 0 0 0 0 0 0 
0 0 0 0 0 0 0 0 
0 0 0 0 0 0 0 0 
0 0 0 0 0 0 0 0 
0 0 0 0 0 0 0 0 
0 0 0 0 0 0 0 0 
0 0 0 0 0 0 0 0 
0 0 0 0 0 0 0 0 
0 0 0 0 0 0 0 0 
0 0 0 0 0 0 0 0 
0 0 0 0 0 0 0 0 
0 0 0 0 0 0 0 0 
0 0 0 0 0 0 0 0 
0 0 0 0 0 0 0 0 
0 0 0 0 0 0 0 0 
0 0 0 0 0 0 0 0 
0 0 0 0 0 0 0 0 
0 0 0 0 0 0 0 0 
0 0 0 0 0 0 0 0 
0 0 0 0 0 0 0 0 
13.5845 3.31123e-05 0 0 13.5845 0 0 0 
0 0 0 0 0 0 0 0 
0 0 0 0 0 0 0 0 
0 0 0 0 0 0 0 0 
0 0 0 0 0 0 0 0 
0 0 0 0 0 0 0 0 
0 0 0 0 0 0 0 0 
0.0547987 0 -3.20572e-05 0 0 -0.0547987 0 0 
0.0484559 0 -2.83467e-05 0 0 -0.0484559 0 0 
2.24183 -0.000298033 0.000254921 -0.000270514 -1.12092 1.37284 -1.37284 687.485 
1.98378 -0.000309617 0.000218064 -0.000209427 -0.99189 1.21481 -1.21482 1082.33 
0.0403419 -0.000413877 0.000359045 0.000376927 0 0.028526 0.028526 56.6029 
0.0342342 -0.00080936 0.000691161 0.000695914 8.12097e-10 0.0242072 0.0242072 51.3717 
0.0277948 -0.000156875 0.000123813 0.000119976 0 0.0196539 0.0196539 48.7737 
0.0471802 -0.000368055 0.000697695 -6.31948e-06 0 0.0471802 0 48.1049 
0.0310952 -0.000337096 0.000459831 -6.48945e-06 0 0.0310952 0 43.7268 
0.0351032 -0.000228011 -8.36106e-06 0.000519102 0 0 0.0351032 28.8741 
0.0299572 -0.000475739 4.51113e-06 0.000443003 0 0 0.0299572 60.2339 
0.040317 -0.000795082 0.000812529 0.000821003 0 0.0285084 0.0285084 48.3309 
0.0368875 -0.000245841 0.000336136 0.000336815 -5.38503e-10 0.0260834 0.0260834 34.3365 
0.0304666 -0.000112176 0.000124934 0.00014229 0 0.0215431 0.0215431 34.6997 
2.04141 -0.00026558 -0.000240748 0.000242455 -1.0207 -1.2501 1.2501 575.084 
2.67807 -0.000359839 -0.000310619 0.000313959 -1.33904 -1.63997 1.63999 1005.5 
0.0357923 -0.000701104 -0.000719408 -0.000730798 0 -0.025309 -0.025309 42.7248 
0.0317682 -0.000267018 -0.000291826 -0.000287733 1.67369e-09 -0.0224635 -0.0224635 35.1179 
0.0342141 -0.000132975 -0.000146829 -0.000153264 0 -0.024193 -0.024193 35.2821 
0.0423779 -0.000303035 -0.000626678 1.59647e-05 0 -0.0423779 0 38.2889 
0.031751 -0.000402636 -0.000469529 1.60817e-05 0 -0.031751 0 49.7655 
0.0335325 -0.000319533 -1.82279e-05 -0.000495874 0 0 -0.0335325 39.264 
0.0377557 -0.000428367 -1.55678e-06 -0.000558327 0 0 -0.0377557 52.0114 
0.0366528 -0.000279694 -0.000331525 -0.000337144 0 -0.0259174 -0.0259174 36.6638 
0.0362062 -0.000667329 -0.000735742 -0.000731231 -2.37989e-10 -0.0256016 -0.0256016 41.9073 
0.0321918 -0.000167516 -0.00013868 -0.000143676 0 -0.022763 -0.022763 49.5892 
0.207278 -2.87987e-05 5.34916e-06 -0.000121258 0 0 -0.207278 135.855 
0.196597 -2.26554e-05 -1.47135e-06 -0.000115009 0 0 -0.196597 64.5095 
0.195625 -1.82273e-05 -0.000111506 -5.15945e-06 0 -0.195625 0 56.4866 
0.257581 -3.21277e-05 -0.000146821 -8.75589e-07 0 -0.257581 0 82.3061 
0.2197 -2.54838e-05 -7.39493e-06 0.000128524 0 0 0.2197 71.8095 
0.207359 -2.78298e-05 -1.30403e-06 0.000121305 0 0 0.207359 126.547 
0.237226 -3.44896e-05 0.000135219 4.675e-06 0 0.237226 0 110.595 
0.225481 -3.04014e-05 0.000128524 -7.66687e-06 0 0.225481 0 90.0428 
0.0999159 2.92131e-06 5.69521e-05 -5.90681e-06 0 0.0999159 0 6.97283 
0.0538636 -2.33049e-05 3.07023e-05 -9.72069e-07 0 0.0538636 0 79.0559 
0.0641292 -1.12318e-05 -4.00928e-06 -3.65536e-05 0 0 -0.0641292 53.9555 
0.0372598 -1.10799e-05 -1.07389e-06 -2.12381e-05 0 0 -0.0372598 32.6512 
0.040968 -3.51895e-05 -2.33518e-05 1.95773e-06 0 -0.040968 0 91.9859 
0.0575327 -1.12603e-05 -3.27936e-05 -5.08303e-06 0 -0.0575327 0 72.5336 
0.0823337 -4.09866e-06 -8.46078e-06 4.69302e-05 0 -1.61426e-08 0.0823337 16.7809 
0.0562252 -2.84784e-05 -3.67298e-06 3.20484e-05 0 -1.10237e-08 0.0562252 109.371 
0.175886 -1.43755e-05 0.000100255 4.18863e-07 0 0.175886 0 40.2874 
0.110537 -2.67599e-05 6.3006e-05 -1.85584e-06 0 0.110537 0 124.341 
0.178676 -8.16412e-05 -6.24067e-07 -0.000101846 0 0 -0.178676 252.908 
0.0854832 2.84268e-06 2.89803e-06 -4.87254e-05 0 0 -0.0854832 1.09676 
0.123248 -3.67323e-05 -7.02514e-05 7.68254e-06 0 -0.123248 0 165.816 
0.174283 -6.9518e-05 -9.93414e-05 -1.32902e-06 0 -0.174283 0 221.594 
0.150613 -9.2321e-06 2.40507e-06 8.58492e-05 0 0 0.150613 26.4713 
0.114331 2.86285e-06 2.57782e-06 6.51689e-05 0 0 0.114331 -3.23302 
0.131031 -1.99337e-05 -7.46875e-05 6.00066e-08 0 -0.131031 0 71.8841 
0.113767 -2.67949e-05 -6.4847e-05 -4.18984e-07 0 -0.113767 0 88.7638 
0.246438 -3.15691e-05 1.1293e-06 0.00014047 0 0 0.246438 92.2099 
0.161174 -3.12697e-05 5.10755e-07 9.18691e-05 0 0 0.161174 101.023 
0.125981 1.54002e-06 7.1809e-05 -3.74115e-07 0 0.125981 0 -2.18067 
0.0845082 -3.94583e-05 4.81697e-05 -1.57032e-06 0 0.0845082 0 138.792 
0.126973 -3.61395e-05 1.12167e-05 -7.23748e-05 0 0 -0.126973 132.532 
0.2811 -5.70181e-05 -5.53021e-06 -0.000160227 0 0 -0.2811 139.414 
0.173416 -3.25178e-05 9.88474e-05 -4.84301e-06 0 0.173416 0 113.26 
0.285329 -1.94497e-05 0.000162638 2.72557e-06 0 0.285329 0 48.585 
0.175692 -5.40785e-05 1.57813e-05 -0.000100144 0 0 -0.175692 156.418 
0.193497 -5.62036e-06 1.07477e-05 -0.000110293 0 0 -0.193497 5.60175 
0.286187 -7.41417e-06 -0.000163126 -4.96603e-06 0 -0.286187 0 34.6106 
0.213834 -4.55794e-05 -0.000121885 9.5793e-06 0 -0.213834 0 95.5717 
0.196127 -1.54252e-05 5.97703e-06 0.000111792 0 0 0.196127 49.052 
0.174799 -3.17501e-05 -1.12974e-06 9.96354e-05 0 0 0.174799 98.1493 
0.21096 -1.2957e-05 0.000120247 -6.65533e-06 0 0.21096 0 51.3924 
0.171075 -2.41465e-05 9.75127e-05 -2.41599e-06 0 0.171075 0 57.7995 
0.143792 -3.00756e-05 9.59095e-06 -8.19614e-05 0 0 -0.143792 133.505 
0.117657 -1.86002e-05 8.55638e-06 -6.70643e-05 0 0 -0.117657 92.7059 
0.240044 -6.21398e-06 -0.000136825 -1.56241e-05 0 -0.240044 0 66.8936 
0.203445 -1.65122e-05 -0.000115963 1.40149e-06 0 -0.203445 0 53.3506 
0.222357 -1.9711e-05 -4.76122e-07 0.000126744 0 0 0.222357 64.5854 
0.160781 -1.00242e-06 1.02806e-06 9.16454e-05 0 0 0.160781 0.0226949 
0.126761 -1.52451e-05 -9.01698e-07 -7.22536e-05 0 0 -0.126761 42.662 
0.0949789 -3.72651e-06 -5.97421e-07 -5.4138e-05 0 0 -0.0949789 -1.85677 
0.0898695 -1.79589e-05 -5.12256e-05 -5.91736e-07 0 -0.0898695 0 46.1289 
0.117243 -2.62208e-06 -6.68284e-05 -3.54412e-07 0 -0.117243 0 -1.44899 
0.0859862 -3.70851e-05 9.38956e-06 4.90121e-05 0 0 0.0859862 129.624 
0.136564 -1.24742e-05 9.434e-07 7.78413e-05 0 0 0.136564 35.9698 
0.0890151 2.32987e-06 5.07386e-05 1.33912e-06 0 0.0890151 0 -0.329027 
0.0987286 2.12416e-06 5.62753e-05 1.21691e-06 0 0.0987286 0 -0.522499 
0.192981 -4.99664e-05 0.000109999 -3.35203e-06 0 0.192981 0 120.111 
0.16754 -6.0639e-05 9.54981e-05 2.18284e-06 0 0.16754 0 161.712 
0.113503 1.31899e-07 3.17567e-06 -6.4697e-05 0 0 -0.113503 1.0336 
0.194338 4.28669e-07 5.53537e-07 -0.000110772 0 0 -0.194338 -0.248767 
0.240024 -4.0094e-06 -0.000136813 5.96271e-06 0 -0.240024 0 20.7495 
0.0959655 -4.22565e-05 -5.47004e-05 3.2462e-06 0 -0.0959655 0 108.961 
0.174986 -3.69991e-05 -4.76777e-06 9.9742e-05 0 0 0.174986 134.03 
0.16556 -3.2568e-05 2.62574e-06 9.43691e-05 0 0 0.16556 83.8772 
0.248572 -2.56595e-05 -1.25097e-05 -0.000141686 0 0 -0.248572 94.5657 
0.17854 -2.62188e-05 1.42116e-06 -0.000101768 0 0 -0.17854 79.9306 
0.327118 -1.47731e-05 -0.000186457 8.49822e-06 0 -0.327118 0 43.8179 
0.0972974 -2.32695e-05 -5.54595e-05 5.14373e-06 0 -0.0972974 0 67.4694 
0.22712 -2.04676e-06 6.4607e-07 0.000129458 0 0 0.22712 2.46872 
0.133986 -3.48435e-05 6.3679e-06 7.63721e-05 0 0 0.133986 105.497 
0.209687 -4.27868e-05 0.000119522 -1.30693e-07 0 0.209687 4.1112e-08 133.251 
0.128339 -2.38579e-06 7.3153e-05 -4.88782e-07 0 0.128339 2.51625e-08 1.64468 
0.190832 -1.98949e-05 -5.23341e-06 -0.000108774 0 0 -0.190832 81.9862 
0.115293 -3.66305e-05 5.74597e-06 -6.57171e-05 0 0 -0.115293 105.912 
0.197288 -1.35451e-05 -0.000112454 -1.4389e-06 0 -0.197288 -3.8683e-08 62.5466 
0.256384 -3.03445e-05 -0.000146139 3.46196e-06 0 -0.256384 -5.02701e-08 81.4939 
0.208134 -3.78364e-06 9.09019e-06 0.000118636 0 0 0.208134 16.5926 
0.131602 -9.80142e-06 3.80523e-07 7.50133e-05 0 0 0.131602 28.9924 
0.230778 -3.21605e-05 0.000131543 3.24464e-06 0 0.230778 0 87.192 
0.263677 -1.94289e-05 0.000150296 4.06438e-06 0 0.263677 0 54.4001 
0.123264 -3.61075e-05 -4.48006e-06 7.21096e-05 0 0 0.123264 117.265 
0.129349 -9.51947e-06 -1.27931e-06 7.56694e-05 0 0 0.129349 27.4322 
0.311553 -3.33487e-05 0.000177585 -8.79729e-07 0 0.311553 0 94.121 
0.132807 -1.31286e-05 7.57e-05 -7.80197e-06 0 0.132807 0 23.6336 
0.1595 -1.61992e-05 1.12544e-05 -9.33072e-05 0 0 -0.1595 23.4759 
0.0994388 -3.50883e-05 9.19428e-06 -5.81717e-05 0 0 -0.0994388 133.221 
0.106741 -1.61786e-05 -6.08421e-05 -1.05202e-06 0 -0.106741 0 49.3521 
0.324678 -2.20697e-05 -0.000185066 4.63296e-06 0 -0.324678 0 98.5034 
0.212319 -4.22751e-05 -3.01576e-06 0.000124207 0 0 0.212319 129.276 
0.34949 -1.26906e-05 -3.35067e-06 0.000204452 0 0 0.34949 35.5582 
0.15021 -2.41374e-05 8.56199e-05 -1.37733e-06 0 0.15021 0 53.375 
0.231994 -4.57531e-05 0.000132236 -1.50009e-06 0 0.231994 0 127.538 
0.134707 -1.35971e-05 2.16442e-06 -7.88036e-05 0 0 -0.134707 38.5297 
0.347237 3.5162e-07 -3.5058e-07 -0.000203134 0 0 -0.347237 1.23089 
0.232488 -1.43281e-05 -0.000132518 -8.26201e-06 0 -0.232488 0 47.0962 
0.158277 -1.48132e-05 -9.02179e-05 -3.18344e-06 0 -0.158277 0 60.1567 
0.0787353 0 0 -4.48791e-05 0 0 -0.0787353 0 
0.122658 -1.58713e-06 3.53607e-07 -6.99151e-05 0 0 -0.122658 -0.606826 
0.181875 -2.13518e-05 -0.000103669 -1.42371e-05 0 -0.181875 0 63.7955 
0.103244 -1.40268e-05 -5.8849e-05 -1.31478e-06 0 -0.103244 0 52.656 
0.0708622 -2.04546e-05 4.44659e-06 4.03915e-05 0 0 0.0708622 70.0832 
0.0996497 -4.95447e-05 1.56721e-06 5.68003e-05 0 0 0.0996497 153.907 
0.116684 -1.08498e-05 6.651e-05 9.41345e-06 0 0.116684 0 28.7006 
0.102042 -3.42849e-05 5.81641e-05 -1.16938e-07 0 0.102042 0 107.989 
0.0375667 -4.18887e-06 3.46326e-06 2.19765e-05 0 0 0.0375667 34.3226 
0.0257617 -1.57969e-05 1.78275e-06 1.50706e-05 0 0 0.0257617 43.2261 
0.0588619 -3.87195e-06 3.44342e-05 -1.00674e-06 0 0.0588619 0 -1.88478 
0.0299595 1.35155e-06 1.75263e-05 -2.60978e-06 0 0.0299595 0 -0.86226 
0.0344163 1.18387e-06 -8.57697e-07 -2.01336e-05 0 0 -0.0344163 -1.63454 
0.00519083 0 0 -1.51832e-06 0 0 -0.00519083 0 
0.0480019 0 0 -1.40406e-05 0 0 -0.0480019 0 
0.0841993 -3.74595e-05 -4.92566e-05 -4.26953e-07 0 -0.0841993 0 127.915 
0.034428 -8.94207e-07 -1.00702e-05 -3.27378e-08 0 -0.034428 0 2.07549 
0.0390781 0 -1.14304e-05 0 0 -0.0390781 0 0 
0.141166 -6.67539e-05 7.51789e-06 8.2582e-05 0 0 0.141166 199.502 