ITEM: TIMESTEP
90
ITEM: NUMBER OF SURFS
6916
ITEM: BOX BOUNDS oo rr rr
-0.35 0.35
-0.25 0.25
-0.25 0.25
ITEM: SURFS f_save[1] f_save[2] f_save[3] f_save[4] f_save[5] f_save[6] f_save[7] f_save[8] 
8.18871 -6.14409e-05 0 0 -8.18871 0 0 0 
5.92575 -4.44617e-05 0 0 -5.92575 0 0 0 
0 0 0 0 0 0 0 0 
0.813556 -1.32298e-05 0.000244169 6.60834e-06 0 0.813556 0 96.0433 
0.542839 -4.04873e-05 0.000162908 -1.20594e-05 0 0.542839 0 325.692 
0.689988 -4.26242e-05 -0.000207083 3.58925e-06 0 -0.689988 0 291.262 
0.562995 -1.51802e-05 -0.000168957 -9.92125e-06 0 -0.562995 0 123.151 
0 0 0 0 0 0 0 0 
0 0 0 0 0 0 0 0 
0 0 0 0 0 0 0 0 
0.153483 -1.31991e-05 -1.00887e-06 8.97876e-05 0 0 0.153483 48.1957 
0.130612 4.38101e-06 3.28442e-06 7.64082e-05 0 0 0.130612 -0.113361 
0 0 0 0 0 0 0 0 
15.5852 -3.7989e-05 0 0 -15.5852 0 0 0 
0 0 0 0 0 0 0 0 
0 0 0 0 0 0 0 0 
0 0 0 0 0 0 0 0 
0 0 0 0 0 0 0 0 
16.6069 -4.04794e-05 0 0 -16.6069 0 0 0 
10.6868 -2.60491e-05 0 0 -10.6868 0 0 0 
0 0 0 0 0 0 0 0 
0 0 0 0 0 0 0 0 
14.5786 -3.46241e-05 0 0 -14.5786 0 0 0 
10.3703 -2.46295e-05 0 0 -10.3703 0 0 0 
0 0 0 0 0 0 0 0 
0 0 0 0 0 0 0 0 
0 0 0 0 0 0 0 0 
0 0 0 0 0 0 0 0 
14.269 -3.47806e-05 0 0 -14.269 0 0 0 
25.6813 -6.25982e-05 0 0 -25.6813 0 0 0 
0 0 0 0 0 0 0 0 
0 0 0 0 0 0 0 0 
18.5732 -4.41115e-05 2.44594e-06 -8.01231e-07 -18.5732 0 0 14775.9 
0 0 0 0 0 0 0 0 
23.4481 -5.56893e-05 -2.0888e-06 -1.56514e-06 -23.4481 0 0 13249.3 
0 0 0 0 0 0 0 0 
0 0 0 0 0 0 0 0 
0 0 0 0 0 0 0 0 
14.2797 -3.39143e-05 0 0 -14.2797 0 0 0 
45.8677 -0.000108936 0 0 -45.8677 0 0 0 
0 0 0 0 0 0 0 0 
15.7913 -3.75044e-05 0 0 -15.7913 0 0 0 
31.9399 -7.58574e-05 0 0 -31.9399 0 0 0 
13.9308 -3.30857e-05 0 0 -13.9308 0 0 0 
0 0 0 0 0 0 0 0 
0 0 0 0 0 0 0 0 
32.3868 -7.89426e-05 -1.18352e-06 2.62208e-07 -32.3868 0 0 12125.2 
4.97999 -1.21387e-05 -1.55824e-06 -7.19829e-07 -4.97999 0 0 8925.91 
0 0 0 0 0 0 0 0 
14.8193 -3.61221e-05 0 0 -14.8193 0 0 0 
15.042 -3.66648e-05 0 0 -15.042 0 0 0 
9.27567 -2.26095e-05 0 0 -9.27567 0 0 0 
0 0 0 0 0 0 0 0 
0 0 0 0 0 0 0 0 
0 0 0 0 0 0 0 0 
0 0 0 0 0 0 0 0 
15.9904 -3.79773e-05 0 0 -15.9904 0 0 0 
0 0 0 0 0 0 0 0 
16.3082 -3.8732e-05 0 0 -16.3082 0 0 0 
31.9979 -7.59949e-05 0 0 -31.9979 0 0 0 
13.9115 -3.39093e-05 0 0 -13.9115 0 0 0 
13.3655 -3.25785e-05 0 0 -13.3655 0 0 0 
27.5437 -6.71378e-05 0 0 -27.5437 0 0 0 
31.0677 -7.57276e-05 0 0 -31.0677 0 0 0 
0 0 0 0 0 0 0 0 
0 0 0 0 0 0 0 0 
13.7692 -3.35627e-05 0 0 -13.7692 0 0 0 
0 0 0 0 0 0 0 0 
16.3433 -3.88154e-05 0 0 -16.3433 0 0 0 
0 0 0 0 0 0 0 0 
20.3773 -4.967e-05 0 0 -20.3773 0 0 0 
0 0 0 0 0 0 0 0 
0 0 0 0 0 0 0 0 
0 0 0 0 0 0 0 0 
29.6848 -7.23566e-05 0 0 -29.6848 0 0 0 
7.06567 -1.72225e-05 -1.9544e-06 -3.22306e-08 -7.06567 0 0 10960.7 
18.6274 -4.54044e-05 -2.02258e-07 1.09959e-06 -18.6274 0 0 6061.97 
13.8414 -3.37385e-05 0 0 -13.8414 0 0 0 
6.11916 -1.4533e-05 0 0 -6.11916 0 0 0 
30.3805 -7.21538e-05 0 0 -30.3805 0 0 0 
0 0 0 0 0 0 0 0 
0 0 0 0 0 0 0 0 
30.615 -7.27107e-05 0 0 -30.615 0 0 0 
10.8879 -2.58588e-05 0 0 -10.8879 0 0 0 
0 0 0 0 0 0 0 0 
15.0991 -3.58604e-05 0 0 -15.0991 0 0 0 
0 0 0 0 0 0 0 0 
15.5431 -3.69148e-05 0 0 -15.5431 0 0 0 
0 0 0 0 0 0 0 0 
13.7583 -3.35359e-05 0 0 -13.7583 0 0 0 
5.64156 -1.37514e-05 0 0 -5.64156 0 0 0 
0 0 0 0 0 0 0 0 
0 0 0 0 0 0 0 0 
0 0 0 0 0 0 0 0 
14.8929 -3.63015e-05 0 0 -14.8929 0 0 0 
42.7679 -0.000104247 3.22638e-06 1.89778e-06 -42.7679 0 0 23797.9 
25.0784 -5.95614e-05 0 0 -25.0784 0 0 0 
5.27694 -1.25328e-05 1.82424e-06 -8.33485e-07 -5.27694 0 0 6620.34 
0 0 0 0 0 0 0 0 
0 0 0 0 0 0 0 0 
15.3907 -3.65531e-05 0 0 -15.3907 0 0 0 
38.8252 -9.22101e-05 -5.57911e-07 6.02243e-07 -38.8252 0 0 16559 
0 0 0 0 0 0 0 0 
14.752 -3.5036e-05 0 0 -14.752 0 0 0 
0 0 0 0 0 0 0 0 
0 0 0 0 0 0 0 0 
8.17137 -1.9407e-05 8.06455e-07 -5.76947e-07 -8.17137 0 0 14315.2 
0 0 0 0 0 0 0 0 
0 0 0 0 0 0 0 0 
0 0 0 0 0 0 0 0 
0 0 0 0 0 0 0 0 
0 0 0 0 0 0 0 0 
0 0 0 0 0 0 0 0 
15.9414 -3.78608e-05 0 0 -15.9414 0 0 0 
0 0 0 0 0 0 0 0 
3.40932 -8.09713e-06 1.32861e-05 -1.66659e-06 -3.40932 0 0 6705.62 
0 0 0 0 0 0 0 0 
0 0 0 0 0 0 0 0 
13.0609 -3.10197e-05 0 0 -13.0609 0 0 0 
0 0 0 0 0 0 0 0 
13.6694 -3.24649e-05 0 0 -13.6694 0 0 0 
0 0 0 0 0 0 0 0 
0 0 0 0 0 0 0 0 
0 0 0 0 0 0 0 0 
7.89975 -1.87619e-05 -8.71704e-07 -2.60472e-06 -7.89975 0 0 12650.1 
10.8605 -2.57938e-05 0 0 -10.8605 0 0 0 
14.078 -3.43152e-05 0 0 -14.078 0 0 0 
0 0 0 0 0 0 0 0 
0 0 0 0 0 0 0 0 
0 0 0 0 0 0 0 0 
0 0 0 0 0 0 0 0 
0 0 0 0 0 0 0 0 
15.7299 -3.83416e-05 0 0 -15.7299 0 0 0 
13.5233 -3.2963e-05 0 0 -13.5233 0 0 0 
0 0 0 0 0 0 0 0 
0 0 0 0 0 0 0 0 
0 0 0 0 0 0 0 0 
15.9788 -3.79498e-05 0 0 -15.9788 0 0 0 
0 0 0 0 0 0 0 0 
14.7259 -3.58943e-05 0 0 -14.7259 0 0 0 
0 0 0 0 0 0 0 0 
0 0 0 0 0 0 0 0 
23.9717 -5.69329e-05 8.06786e-08 3.99529e-07 -23.9717 0 0 12858.7 
15.8067 -3.7541e-05 0 0 -15.8067 0 0 0 
0 0 0 0 0 0 0 0 
8.05875 -1.96432e-05 -2.29993e-07 -3.66373e-06 -8.05875 0 0 13350.6 
0 0 0 0 0 0 0 0 
0 0 0 0 0 0 0 0 
12.3547 -2.93427e-05 0 0 -12.3547 0 0 0 
15.007 -3.56416e-05 0 0 -15.007 0 0 0 
41.861 -0.000102036 0 0 -41.861 0 0 0 
17.8469 -4.35017e-05 5.65556e-07 -1.18055e-06 -17.8469 0 0 12961.7 
0 0 0 0 0 0 0 0 
0 0 0 0 0 0 0 0 
0 0 0 0 0 0 0 0 
0 0 0 0 0 0 0 0 
14.3483 -3.40773e-05 0 0 -14.3483 0 0 0 
4.45548 -1.05818e-05 0 0 -4.45548 0 0 0 
0 0 0 0 0 0 0 0 
0 0 0 0 0 0 0 0 
15.0476 -3.66785e-05 0 0 -15.0476 0 0 0 
13.8611 -3.37863e-05 0 0 -13.8611 0 0 0 
15.517 -3.78227e-05 0 0 -15.517 0 0 0 
0 0 0 0 0 0 0 0 
0 0 0 0 0 0 0 0 
0 0 0 0 0 0 0 0 
0 0 0 0 0 0 0 0 
0 0 0 0 0 0 0 0 
3.82611 -9.08706e-06 2.05653e-06 -4.10149e-07 -3.82611 0 0 7151.2 
0 0 0 0 0 0 0 0 
0 0 0 0 0 0 0 0 
0 0 0 0 0 0 0 0 
13.9422 -3.39841e-05 0 0 -13.9422 0 0 0 
0 0 0 0 0 0 0 0 
22.4628 -5.33492e-05 1.99428e-06 -4.44083e-06 -22.4628 0 0 21425.3 
9.51837 -2.26061e-05 0 0 -9.51837 0 0 0 
0 0 0 0 0 0 0 0 
0 0 0 0 0 0 0 0 
20.0127 -4.75304e-05 -1.20335e-06 2.07825e-07 -20.0127 0 0 12565.7 
0 0 0 0 0 0 0 0 
21.8846 -5.19761e-05 0 0 -21.8846 0 0 0 
16.1167 -3.82775e-05 0 0 -16.1167 0 0 0 
0 0 0 0 0 0 0 0 
0 0 0 0 0 0 0 0 
0 0 0 0 0 0 0 0 
14.3539 -3.40906e-05 0 0 -14.3539 0 0 0 
15.6581 -3.71878e-05 0 0 -15.6581 0 0 0 
15.798 -3.75202e-05 0 0 -15.798 0 0 0 
0 0 0 0 0 0 0 0 
0 0 0 0 0 0 0 0 
0 0 0 0 0 0 0 0 
8.76195 -2.08098e-05 1.06399e-06 6.62139e-07 -8.76195 0 0 14704.3 
0 0 0 0 0 0 0 0 
0 0 0 0 0 0 0 0 
43.7106 -0.000103813 0 0 -43.7106 0 0 0 
0 0 0 0 0 0 0 0 
0 0 0 0 0 0 0 0 
0 0 0 0 0 0 0 0 
0 0 0 0 0 0 0 0 
0 0 0 0 0 0 0 0 
14.0272 -3.33146e-05 0 0 -14.0272 0 0 0 
0 0 0 0 0 0 0 0 
0 0 0 0 0 0 0 0 
0 0 0 0 0 0 0 0 
0 0 0 0 0 0 0 0 
0 0 0 0 0 0 0 0 
0 0 0 0 0 0 0 0 
0 0 0 0 0 0 0 0 
0 0 0 0 0 0 0 0 
0 0 0 0 0 0 0 0 
0 0 0 0 0 0 0 0 
15.022 -3.56771e-05 0 0 -15.022 0 0 0 
0 0 0 0 0 0 0 0 
0 0 0 0 0 0 0 0 
31.9944 -7.59867e-05 0 0 -31.9944 0 0 0 
14.5944 -3.46617e-05 0 0 -14.5944 0 0 0 
0 0 0 0 0 0 0 0 
0 0 0 0 0 0 0 0 
0 0 0 0 0 0 0 0 
0 0 0 0 0 0 0 0 
8.40626 -1.99649e-05 -5.02562e-06 7.65015e-07 -8.40626 0 0 15202.3 
0 0 0 0 0 0 0 0 
0 0 0 0 0 0 0 0 
0 0 0 0 0 0 0 0 
0 0 0 0 0 0 0 0 
37.5452 -8.91699e-05 3.00229e-07 -4.71832e-07 -37.5452 0 0 11704.1 
16.7925 -3.98823e-05 0 0 -16.7925 0 0 0 
0 0 0 0 0 0 0 0 
0 0 0 0 0 0 0 0 
0 0 0 0 0 0 0 0 
31.9335 -7.58422e-05 0 0 -31.9335 0 0 0 
0 0 0 0 0 0 0 0 
14.5531 -3.45637e-05 0 0 -14.5531 0 0 0 
8.11615 -1.92759e-05 -2.19731e-06 1.25012e-06 -8.11615 0 0 13119.5 
0 0 0 0 0 0 0 0 
0 0 0 0 0 0 0 0 
0 0 0 0 0 0 0 0 
0 0 0 0 0 0 0 0 
0 0 0 0 0 0 0 0 
0 0 0 0 0 0 0 0 
31.3551 -7.44686e-05 0 0 -31.3551 0 0 0 
0 0 0 0 0 0 0 0 
0 0 0 0 0 0 0 0 
6.16769 -1.50338e-05 -3.59141e-06 3.70472e-06 -6.16769 0 0 10295.7 
0 0 0 0 0 0 0 0 
0 0 0 0 0 0 0 0 
15.7917 -3.75054e-05 -3.5236e-08 -1.18656e-07 -15.7917 0 0 4235.24 
0 0 0 0 0 0 0 0 
0 0 0 0 0 0 0 0 
15.4821 -3.67701e-05 0 0 -15.4821 0 0 0 
0 0 0 0 0 0 0 0 
0 0 0 0 0 0 0 0 
0 0 0 0 0 0 0 0 
23.2338 -5.66325e-05 0 0 -23.2338 0 0 0 
10.3771 -2.46458e-05 0 0 -10.3771 0 0 0 
0 0 0 0 0 0 0 0 
0 0 0 0 0 0 0 0 
0 0 0 0 0 0 0 0 
14.6719 -3.48458e-05 0 0 -14.6719 0 0 0 
0 0 0 0 0 0 0 0 
14.264 -3.38769e-05 0 0 -14.264 0 0 0 
0 0 0 0 0 0 0 0 
0 0 0 0 0 0 0 0 
0 0 0 0 0 0 0 0 
0 0 0 0 0 0 0 0 
22.1358 -5.25725e-05 -1.25243e-06 2.05978e-06 -22.1358 0 0 13710 
8.52107 -2.02376e-05 -2.04523e-06 -1.15519e-06 -8.52107 0 0 15362.1 
0 0 0 0 0 0 0 0 
0 0 0 0 0 0 0 0 
0 0 0 0 0 0 0 0 
12.984 -3.08371e-05 0 0 -12.984 0 0 0 
15.587 -3.70192e-05 0 0 -15.587 0 0 0 
15.2747 -3.62776e-05 0 0 -15.2747 0 0 0 
0 0 0 0 0 0 0 0 
0 0 0 0 0 0 0 0 
0 0 0 0 0 0 0 0 
0 0 0 0 0 0 0 0 
0 0 0 0 0 0 0 0 
0 0 0 0 0 0 0 0 
31.4203 -7.46233e-05 0 0 -31.4203 0 0 0 
0 0 0 0 0 0 0 0 
0 0 0 0 0 0 0 0 
0 0 0 0 0 0 0 0 
0 0 0 0 0 0 0 0 
14.5522 -3.45614e-05 0 0 -14.5522 0 0 0 
8.24173 -1.95741e-05 5.47656e-07 1.12267e-06 -8.24173 0 0 13550.7 
0 0 0 0 0 0 0 0 
0 0 0 0 0 0 0 0 
10.0459 -2.38591e-05 0 0 -10.0459 0 0 0 
44.9188 -0.000106682 0 0 -44.9188 0 0 0 
0 0 0 0 0 0 0 0 
0 0 0 0 0 0 0 0 
0 0 0 0 0 0 0 0 
0 0 0 0 0 0 0 0 
5.10943 -1.21349e-05 -7.78169e-07 1.62504e-06 -5.10943 0 0 8349.67 
0 0 0 0 0 0 0 0 
0 0 0 0 0 0 0 0 
0 0 0 0 0 0 0 0 
0 0 0 0 0 0 0 0 
14.7319 -3.49883e-05 0 0 -14.7319 0 0 0 
0 0 0 0 0 0 0 0 
0 0 0 0 0 0 0 0 
174.924 -2.18655e-05 -8.48757e-07 -1.50317e-06 -174.924 0 0 285280 
0 0 0 0 0 0 0 0 
8.64679 -2.05361e-05 -7.34497e-07 1.24394e-06 -8.64679 0 0 13244.8 
0 0 0 0 0 0 0 0 
0 0 0 0 0 0 0 0 
14.515 -3.44732e-05 0 0 -14.515 0 0 0 
0 0 0 0 0 0 0 0 
0 0 0 0 0 0 0 0 
10.4991 -2.49353e-05 0 0 -10.4991 0 0 0 
10.3531 -2.45886e-05 0 0 -10.3531 0 0 0 
0 0 0 0 0 0 0 0 
0 0 0 0 0 0 0 0 
0 0 0 0 0 0 0 0 
0 0 0 0 0 0 0 0 
14.0032 -3.32577e-05 0 0 -14.0032 0 0 0 
13.6597 -3.24418e-05 0 0 -13.6597 0 0 0 
0 0 0 0 0 0 0 0 
0 0 0 0 0 0 0 0 
14.313 -3.39934e-05 0 0 -14.313 0 0 0 
39.8204 -9.45736e-05 1.09912e-06 -1.86105e-06 -39.8204 0 0 13728.6 
0 0 0 0 0 0 0 0 
0 0 0 0 0 0 0 0 
15.7819 -3.7482e-05 0 0 -15.7819 0 0 0 
14.3786 -3.41491e-05 0 0 -14.3786 0 0 0 
0 0 0 0 0 0 0 0 
0 0 0 0 0 0 0 0 
0 0 0 0 0 0 0 0 
0 0 0 0 0 0 0 0 
0 0 0 0 0 0 0 0 
0 0 0 0 0 0 0 0 
15.3325 -3.73731e-05 0 0 -15.3325 0 0 0 
0 0 0 0 0 0 0 0 
8.55712 -0.00421805 8.1903e-06 -1.39072e-05 -8.55712 0 0 1493.73 
8.20785 -0.000400133 0 0 -8.20785 0 0 0 
14.5084 -3.62712e-05 0 0 -14.5084 0 0 0 
9.8183 -0.000466369 -5.47118e-08 4.52634e-06 -9.8183 0 0 1345.94 
0 0 0 0 0 0 0 0 
6.35004 -0.000301627 4.19312e-06 -4.2669e-06 -6.35004 0 0 1160.91 
0 0 0 0 0 0 0 0 
9.89502 -0.000470014 2.11852e-06 1.71297e-06 -9.89502 0 0 1324.98 
29.5531 -7.38828e-05 0 0 -29.5531 0 0 0 
8.82654 -0.000419261 3.11654e-06 1.29988e-06 -8.82654 0 0 636.121 
6.31882 -1.57971e-05 0 0 -6.31882 0 0 0 
10.8523 -0.000515487 5.69495e-06 5.39927e-06 -10.8523 0 0 3274.45 
0 0 0 0 0 0 0 0 
7.96678 -0.000378422 1.30977e-06 9.30125e-07 -7.96678 0 0 590.056 
27.9958 -6.999e-05 0 0 -27.9958 0 0 2.54927e-11 
6.82321 -0.000332631 1.59311e-06 4.85436e-07 -6.82321 0 0 1795.01 
8.15331 -0.00355778 -3.24601e-06 -1.14095e-05 -8.15331 0 0 1179.15 
7.32638 -0.000510728 -5.3084e-06 4.12892e-06 -7.32638 0 0 726.38 
10.7447 -0.000924045 -8.31414e-06 -3.06573e-07 -10.7447 0 0 2390.63 
10.7585 -0.000925225 -1.15576e-06 -2.94948e-06 -10.7585 0 0 1287.81 
8.84303 -0.000431098 -4.7842e-06 8.98383e-07 -8.84303 0 0 1751.02 
0 0 0 0 0 0 0 0 
8.51943 -0.000404673 -8.50711e-07 7.41987e-07 -8.51943 0 0 2844.47 
0 0 0 0 0 0 0 0 
6.81939 -0.000323921 6.06196e-07 2.23367e-07 -6.81939 0 0 866.818 
2.61829 -6.54575e-06 3.73573e-07 -3.57645e-07 -2.61829 0 0 1098.72 
9.77577 -0.000464349 5.92365e-07 -3.11654e-06 -9.77577 0 0 1519.93 
13.856 -3.464e-05 0 0 -13.856 0 0 0 
6.82519 -0.000324197 1.07619e-06 2.33107e-06 -6.82519 0 0 666.672 
0 0 0 0 0 0 0 0 
12.3881 -0.000588435 9.56208e-07 -5.18014e-06 -12.3881 0 0 1260.11 
0 0 0 0 0 0 0 0 
7.2543 -0.000344579 -9.0623e-07 2.1214e-06 -7.2543 0 0 865.32 
12.1722 -3.04306e-05 0 0 -12.1722 0 0 1.07338e-11 
7.2486 -0.000353369 1.25019e-06 1.96646e-06 -7.2486 0 0 1302.13 
11.1388 -0.000543015 1.47075e-05 -4.96121e-06 -11.1388 0 0 1489.81 
9.48311 -0.0046745 5.59683e-06 1.35762e-06 -9.48311 0 0 2300.47 
10.6781 -0.000918312 -2.59539e-08 -2.60589e-06 -10.6781 0 0 1146.26 
8.87615 -0.00076335 2.83613e-06 3.59682e-06 -8.87615 0 0 1014.03 
6.94623 -9.12884e-05 8.91769e-07 -5.90271e-07 -6.94623 0 0 4683.24 
6.31641 -0.000307925 2.5413e-06 -6.92802e-07 -6.31641 0 0 1963.87 
0 0 0 0 0 0 0 0 
6.55919 -0.000311561 -2.93531e-06 -1.98813e-06 -6.55919 0 0 3885.47 
7.8036 -1.9509e-05 -1.5485e-06 2.26161e-07 -7.8036 0 0 12280.6 
6.77034 -0.000321591 -7.10021e-07 2.82317e-06 -6.77034 0 0 4047.69 
0 0 0 0 0 0 0 0 
5.95907 -0.000283056 1.37288e-09 -3.13188e-06 -5.95907 0 0 843.648 
15.9836 -3.9959e-05 0 0 -15.9836 0 0 0 
15.0694 -0.000715797 -2.12923e-06 -1.14022e-06 -15.0694 0 0 590.579 
13.3685 -3.34214e-05 0 0 -13.3685 0 0 1.07338e-11 
12.8801 -0.000611805 -7.16593e-06 -2.50253e-06 -12.8801 0 0 3264.79 
0 0 0 0 0 0 0 0 
9.71222 -0.00046133 -2.12225e-07 -1.46036e-06 -9.71222 0 0 3352.87 
0 0 0 0 0 0 0 0 
6.93286 -0.000337977 -6.1583e-06 4.47651e-06 -6.93286 0 0 651.88 
8.71664 -0.00429668 -1.98355e-06 2.00436e-05 -8.71664 0 0 1304.27 
0 0 0 0 0 0 0 0 
8.96389 -0.000425785 9.044e-07 -1.89826e-06 -8.96389 0 0 689.088 
13.8892 -3.47231e-05 0 0 -13.8892 0 0 0 
9.65877 -0.000458792 -6.33599e-06 1.8469e-06 -9.65877 0 0 1107.97 
13.0869 -3.27172e-05 0 0 -13.0869 0 0 1.07338e-11 
7.66544 -0.000364108 3.56327e-06 -2.35269e-06 -7.66544 0 0 2709.05 
0 0 0 0 0 0 0 0 
12.2804 -0.00058332 -8.52745e-06 -6.45079e-06 -12.2804 0 0 3238.31 
28.2487 -7.06219e-05 0 0 -28.2487 0 0 0 
6.09559 -0.000289541 -2.61089e-07 -2.21454e-06 -6.09559 0 0 1476.89 
7.88529 -1.97132e-05 -2.15763e-06 -1.1097e-06 -7.88529 0 0 14384 
5.93211 -0.000281775 2.20513e-06 1.68001e-06 -5.93211 0 0 1197.27 
11.264 -2.81601e-05 0 0 -11.264 0 0 9.39206e-12 
6.41841 -0.000312898 2.68761e-06 4.05196e-07 -6.41841 0 0 1263.64 
0.0597796 -2.42667e-05 3.49711e-05 -2.37776e-07 0 0.0597796 0 70.0776 
0.0576605 0 1.68657e-05 0 0 0.0576605 0 0 
0 0 0 0 0 0 0 0 
0 0 0 0 0 0 0 0 
0 0 0 0 0 0 0 0 
0 0 0 0 0 0 0 0 
0 0 0 0 0 0 0 0 
0 0 0 0 0 0 0 0 
0 0 0 0 0 0 0 0 
0 0 0 0 0 0 0 0 
0 0 0 0 0 0 0 0 
0 0 0 0 0 0 0 0 
0 0 0 0 0 0 0 0 
0 0 0 0 0 0 0 0 
0 0 0 0 0 0 0 0 
0 0 0 0 0 0 0 0 
0 0 0 0 0 0 0 0 
0 0 0 0 0 0 0 0 
0 0 0 0 0 0 0 0 
0 0 0 0 0 0 0 0 
0 0 0 0 0 0 0 0 
0 0 0 0 0 0 0 0 
0 0 0 0 0 0 0 0 
0 0 0 0 0 0 0 0 
0 0 0 0 0 0 0 0 
0 0 0 0 0 0 0 0 
0 0 0 0 0 0 0 0 
0 0 0 0 0 0 0 0 
7.75907 1.84278e-05 -5.7945e-07 -1.31563e-06 7.75907 0 0 11107.4 
0 0 0 0 0 0 0 0 
0 0 0 0 0 0 0 0 
0 0 0 0 0 0 0 0 
0 0 0 0 0 0 0 0 
0 0 0 0 0 0 0 0 
0 0 0 0 0 0 0 0 
0 0 0 0 0 0 0 0 
0 0 0 0 0 0 0 0 
0 0 0 0 0 0 0 0 
0 0 0 0 0 0 0 0 
0 0 0 0 0 0 0 0 
0 0 0 0 0 0 0 0 
0 0 0 0 0 0 0 0 
0 0 0 0 0 0 0 0 
0 0 0 0 0 0 0 0 
0 0 0 0 0 0 0 0 
0 0 0 0 0 0 0 0 
0 0 0 0 0 0 0 0 
0 0 0 0 0 0 0 0 
0 0 0 0 0 0 0 0 
0 0 0 0 0 0 0 0 
0 0 0 0 0 0 0 0 
0 0 0 0 0 0 0 0 
0 0 0 0 0 0 0 0 
0 0 0 0 0 0 0 0 
0 0 0 0 0 0 0 0 
0 0 0 0 0 0 0 0 
0 0 0 0 0 0 0 0 
0 0 0 0 0 0 0 0 
0 0 0 0 0 0 0 0 
0 0 0 0 0 0 0 0 
0 0 0 0 0 0 0 0 
0 0 0 0 0 0 0 0 
0 0 0 0 0 0 0 0 
0 0 0 0 0 0 0 0 
0 0 0 0 0 0 0 0 
0 0 0 0 0 0 0 0 
0 0 0 0 0 0 0 0 
0 0 0 0 0 0 0 0 
0 0 0 0 0 0 0 0 
0 0 0 0 0 0 0 0 
0 0 0 0 0 0 0 0 
0 0 0 0 0 0 0 0 
0 0 0 0 0 0 0 0 
0 0 0 0 0 0 0 0 
0 0 0 0 0 0 0 0 
0 0 0 0 0 0 0 0 
0 0 0 0 0 0 0 0 
0 0 0 0 0 0 0 0 
0 0 0 0 0 0 0 0 
0 0 0 0 0 0 0 0 
0 0 0 0 0 0 0 0 
0 0 0 0 0 0 0 0 
0 0 0 0 0 0 0 0 
0 0 0 0 0 0 0 0 
0 0 0 0 0 0 0 0 
0 0 0 0 0 0 0 0 
0 0 0 0 0 0 0 0 
0 0 0 0 0 0 0 0 
0 0 0 0 0 0 0 0 
0 0 0 0 0 0 0 0 
0 0 0 0 0 0 0 0 
0 0 0 0 0 0 0 0 
0 0 0 0 0 0 0 0 
0 0 0 0 0 0 0 0 
0 0 0 0 0 0 0 0 
0 0 0 0 0 0 0 0 
0 0 0 0 0 0 0 0 
0 0 0 0 0 0 0 0 
0 0 0 0 0 0 0 0 
0 0 0 0 0 0 0 0 
0 0 0 0 0 0 0 0 
0 0 0 0 0 0 0 0 
0 0 0 0 0 0 0 0 
0 0 0 0 0 0 0 0 
0 0 0 0 0 0 0 0 
0 0 0 0 0 0 0 0 
0 0 0 0 0 0 0 0 
0 0 0 0 0 0 0 0 
0 0 0 0 0 0 0 0 
0 0 0 0 0 0 0 0 
0 0 0 0 0 0 0 0 
0 0 0 0 0 0 0 0 
0 0 0 0 0 0 0 0 
0 0 0 0 0 0 0 0 
0 0 0 0 0 0 0 0 
0 0 0 0 0 0 0 0 
0 0 0 0 0 0 0 0 
0 0 0 0 0 0 0 0 
0 0 0 0 0 0 0 0 
0 0 0 0 0 0 0 0 
0 0 0 0 0 0 0 0 
0 0 0 0 0 0 0 0 
0 0 0 0 0 0 0 0 
0 0 0 0 0 0 0 0 
0 0 0 0 0 0 0 0 
0 0 0 0 0 0 0 0 
0 0 0 0 0 0 0 0 
0 0 0 0 0 0 0 0 
0 0 0 0 0 0 0 0 
0 0 0 0 0 0 0 0 
0 0 0 0 0 0 0 0 
0 0 0 0 0 0 0 0 
0 0 0 0 0 0 0 0 
0 0 0 0 0 0 0 0 
0 0 0 0 0 0 0 0 
0 0 0 0 0 0 0 0 
0 0 0 0 0 0 0 0 
14.2978 3.39572e-05 0 0 14.2978 0 0 0 
0 0 0 0 0 0 0 0 
0 0 0 0 0 0 0 0 
0 0 0 0 0 0 0 0 
0 0 0 0 0 0 0 0 
0 0 0 0 0 0 0 0 
0 0 0 0 0 0 0 0 
0 0 0 0 0 0 0 0 
0 0 0 0 0 0 0 0 
0 0 0 0 0 0 0 0 
0 0 0 0 0 0 0 0 
0 0 0 0 0 0 0 0 
0 0 0 0 0 0 0 0 
0 0 0 0 0 0 0 0 
0 0 0 0 0 0 0 0 
0 0 0 0 0 0 0 0 
0 0 0 0 0 0 0 0 
0 0 0 0 0 0 0 0 
0 0 0 0 0 0 0 0 
0 0 0 0 0 0 0 0 
0 0 0 0 0 0 0 0 
0 0 0 0 0 0 0 0 
0 0 0 0 0 0 0 0 
0 0 0 0 0 0 0 0 
0 0 0 0 0 0 0 0 
0 0 0 0 0 0 0 0 
0 0 0 0 0 0 0 0 
0 0 0 0 0 0 0 0 
0 0 0 0 0 0 0 0 
0 0 0 0 0 0 0 0 
0 0 0 0 0 0 0 0 
0 0 0 0 0 0 0 0 
0 0 0 0 0 0 0 0 
0 0 0 0 0 0 0 0 
0 0 0 0 0 0 0 0 
0 0 0 0 0 0 0 0 
0 0 0 0 0 0 0 0 
0 0 0 0 0 0 0 0 
0 0 0 0 0 0 0 0 
0 0 0 0 0 0 0 0 
0 0 0 0 0 0 0 0 
0 0 0 0 0 0 0 0 
0 0 0 0 0 0 0 0 
0 0 0 0 0 0 0 0 
0 0 0 0 0 0 0 0 
0 0 0 0 0 0 0 0 
0 0 0 0 0 0 0 0 
0 0 0 0 0 0 0 0 
0 0 0 0 0 0 0 0 
0 0 0 0 0 0 0 0 
0 0 0 0 0 0 0 0 
0 0 0 0 0 0 0 0 
0 0 0 0 0 0 0 0 
0 0 0 0 0 0 0 0 
0 0 0 0 0 0 0 0 
0 0 0 0 0 0 0 0 
0 0 0 0 0 0 0 0 
0 0 0 0 0 0 0 0 
0 0 0 0 0 0 0 0 
0 0 0 0 0 0 0 0 
0 0 0 0 0 0 0 0 
0 0 0 0 0 0 0 0 
0 0 0 0 0 0 0 0 
0 0 0 0 0 0 0 0 
0 0 0 0 0 0 0 0 
0 0 0 0 0 0 0 0 
0 0 0 0 0 0 0 0 
0 0 0 0 0 0 0 0 
0 0 0 0 0 0 0 0 
0 0 0 0 0 0 0 0 
0 0 0 0 0 0 0 0 
0 0 0 0 0 0 0 0 
0 0 0 0 0 0 0 0 
0 0 0 0 0 0 0 0 
0 0 0 0 0 0 0 0 
0 0 0 0 0 0 0 0 
0 0 0 0 0 0 0 0 
0 0 0 0 0 0 0 0 
0 0 0 0 0 0 0 0 
0 0 0 0 0 0 0 0 
0 0 0 0 0 0 0 0 
0 0 0 0 0 0 0 0 
0 0 0 0 0 0 0 0 
0 0 0 0 0 0 0 0 
0 0 0 0 0 0 0 0 
0 0 0 0 0 0 0 0 
0 0 0 0 0 0 0 0 
0 0 0 0 0 0 0 0 
0 0 0 0 0 0 0 0 
0 0 0 0 0 0 0 0 
0 0 0 0 0 0 0 0 
0 0 0 0 0 0 0 0 
0 0 0 0 0 0 0 0 
0 0 0 0 0 0 0 0 
0 0 0 0 0 0 0 0 
0 0 0 0 0 0 0 0 
0 0 0 0 0 0 0 0 
0 0 0 0 0 0 0 0 
0 0 0 0 0 0 0 0 
0 0 0 0 0 0 0 0 
0 0 0 0 0 0 0 0 
0 0 0 0 0 0 0 0 
0 0 0 0 0 0 0 0 
0 0 0 0 0 0 0 0 
0 0 0 0 0 0 0 0 
0 0 0 0 0 0 0 0 
0 0 0 0 0 0 0 0 
0 0 0 0 0 0 0 0 
0 0 0 0 0 0 0 0 
0 0 0 0 0 0 0 0 
0 0 0 0 0 0 0 0 
0 0 0 0 0 0 0 0 
0 0 0 0 0 0 0 0 
0 0 0 0 0 0 0 0 
0 0 0 0 0 0 0 0 
0 0 0 0 0 0 0 0 
0 0 0 0 0 0 0 0 
0 0 0 0 0 0 0 0 
0 0 0 0 0 0 0 0 
0 0 0 0 0 0 0 0 
0 0 0 0 0 0 0 0 
0 0 0 0 0 0 0 0 
0 0 0 0 0 0 0 0 
0 0 0 0 0 0 0 0 
2.70279 6.58807e-06 0 0 2.70279 0 0 0 
0 0 0 0 0 0 0 0 
0 0 0 0 0 0 0 0 
0 0 0 0 0 0 0 0 
0 0 0 0 0 0 0 0 
0 0 0 0 0 0 0 0 
0 0 0 0 0 0 0 0 
0 0 0 0 0 0 0 0 
0 0 0 0 0 0 0 0 
0 0 0 0 0 0 0 0 
0 0 0 0 0 0 0 0 
0 0 0 0 0 0 0 0 
0 0 0 0 0 0 0 0 
0 0 0 0 0 0 0 0 
0 0 0 0 0 0 0 0 
0 0 0 0 0 0 0 0 
0 0 0 0 0 0 0 0 
0 0 0 0 0 0 0 0 
0 0 0 0 0 0 0 0 
0 0 0 0 0 0 0 0 
0 0 0 0 0 0 0 0 
0 0 0 0 0 0 0 0 
0 0 0 0 0 0 0 0 
0 0 0 0 0 0 0 0 
0 0 0 0 0 0 0 0 
0 0 0 0 0 0 0 0 
0 0 0 0 0 0 0 0 
0 0 0 0 0 0 0 0 
0 0 0 0 0 0 0 0 
0 0 0 0 0 0 0 0 
0 0 0 0 0 0 0 0 
0 0 0 0 0 0 0 0 
0 0 0 0 0 0 0 0 
0 0 0 0 0 0 0 0 
0 0 0 0 0 0 0 0 
0 0 0 0 0 0 0 0 
0.447136 1.0899e-06 0 0 0.447136 0 0 0 
0 0 0 0 0 0 0 0 
0 0 0 0 0 0 0 0 
0 0 0 0 0 0 0 0 
0 0 0 0 0 0 0 0 
0 0 0 0 0 0 0 0 
0 0 0 0 0 0 0 0 
0 0 0 0 0 0 0 0 
0 0 0 0 0 0 0 0 
0 0 0 0 0 0 0 0 
0 0 0 0 0 0 0 0 
0 0 0 0 0 0 0 0 
0 0 0 0 0 0 0 0 
0 0 0 0 0 0 0 0 
0 0 0 0 0 0 0 0 
0 0 0 0 0 0 0 0 
0 0 0 0 0 0 0 0 
0 0 0 0 0 0 0 0 
0 0 0 0 0 0 0 0 
0 0 0 0 0 0 0 0 
0 0 0 0 0 0 0 0 
0 0 0 0 0 0 0 0 
0 0 0 0 0 0 0 0 
0 0 0 0 0 0 0 0 
0 0 0 0 0 0 0 0 
15.0939 3.67914e-05 0 0 15.0939 0 0 0 
0 0 0 0 0 0 0 0 
0 0 0 0 0 0 0 0 
0 0 0 0 0 0 0 0 
0 0 0 0 0 0 0 0 
0 0 0 0 0 0 0 0 
0 0 0 0 0 0 0 0 
0.0348125 0 -2.03653e-05 0 0 -0.0348125 0 0 
0.0376285 0 -2.20127e-05 0 0 -0.0376285 0 0 
2.35616 -0.000305066 0.000274124 -0.000284776 -1.17808 1.44285 -1.44285 621.371 
1.96412 -0.000295066 0.000218788 -0.000213842 -0.982058 1.20276 -1.20278 950.358 
0.0380967 -0.000420113 0.000331241 0.00036377 0 0.0269384 0.0269384 56.2844 
0.0286046 -0.00076101 0.000585492 0.000573488 6.78553e-10 0.0202265 0.0202265 47.061 
0.0245322 -0.000158227 0.000109197 0.000105976 0 0.0173469 0.0173469 48.8064 
0.0422293 -0.000392694 0.000624481 -9.59044e-06 0 0.0422293 0 50.907 
0.0287762 -0.000289202 0.000425539 -6.2761e-06 0 0.0287762 0 35.6297 
0.0324465 -0.000219768 -7.27406e-06 0.000479814 0 0 0.0324465 26.2749 
0.0248516 -0.000425781 7.31522e-06 0.000367502 0 0 0.0248516 54.1614 
0.0355123 -0.000817334 0.000716338 0.000722523 0 0.025111 0.025111 50.159 
0.0346956 -0.000206579 0.000316297 0.000316668 -5.06505e-10 0.0245335 0.0245335 28.8926 
0.0230024 -0.000100068 0.000100866 0.000100889 0 0.0162651 0.0162651 29.9958 
2.18168 -0.000286001 -0.000256367 0.000258264 -1.09084 -1.336 1.336 638.982 
2.6511 -0.000351858 -0.000307841 0.000314003 -1.32555 -1.62345 1.62347 943.363 
0.0314438 -0.000720046 -0.000648908 -0.000625106 0 -0.0222341 -0.0222341 42.9168 
0.0317883 -0.000265442 -0.000290737 -0.000289188 1.67475e-09 -0.0224777 -0.0224777 34.3126 
0.035406 -0.00014775 -0.000151699 -0.000158849 0 -0.0250358 -0.0250358 39.2023 
0.0369908 -0.00030073 -0.000547015 1.56466e-05 0 -0.0369908 0 37.77 
0.0319983 -0.000400264 -0.000473187 1.34654e-05 0 -0.0319983 0 49.6784 
0.0311883 -0.000303694 -1.36907e-05 -0.000461208 0 0 -0.0311883 37.7751 
0.0343223 -0.000420159 4.92956e-06 -0.000507553 0 0 -0.0343223 51.7621 
0.0336844 -0.000248007 -0.000302329 -0.000312187 0 -0.0238185 -0.0238185 33.3246 
0.0315503 -0.000630399 -0.000635976 -0.000642355 -2.07385e-10 -0.0223094 -0.0223094 39.6269 
0.0295963 -0.000160545 -0.000127241 -0.00013235 0 -0.0209278 -0.0209278 48.5135 
0.222607 -3.19985e-05 5.94351e-06 -0.000130225 0 0 -0.222607 150.95 
0.199531 -2.51726e-05 -1.63483e-06 -0.000116726 0 0 -0.199531 71.6772 
0.183955 -2.02525e-05 -0.000104854 -5.73273e-06 0 -0.183955 0 62.7629 
0.284355 -3.56975e-05 -0.000162082 -9.72876e-07 0 -0.284355 0 91.4512 
0.244111 -2.83153e-05 -8.21659e-06 0.000142805 0 0 0.244111 79.7883 
0.215917 -2.01891e-05 -1.50838e-06 0.000126311 0 0 0.215917 97.7865 
0.257248 -3.69933e-05 0.000146631 3.68923e-06 0 0.257248 0 122.359 
0.21929 -3.37794e-05 0.000124995 -8.51874e-06 0 0.21929 0 100.048 
0.0637359 0 3.63295e-05 0 0 0.0637359 0 3.58604e-14 
0.0493087 -2.58943e-05 2.8106e-05 -1.08008e-06 0 0.0493087 0 87.8399 
0.0637577 -1.21794e-05 -5.97957e-06 -3.63419e-05 0 0 -0.0637577 59.8187 
0.0354423 -1.2311e-05 -1.19322e-06 -2.02021e-05 0 0 -0.0354423 36.2791 
0.041737 -3.84523e-05 -2.37901e-05 1.84177e-07 0 -0.041737 0 103.476 
0.036064 6.14808e-06 -2.05565e-05 -5.22223e-06 0 -0.036064 0 -2.13081 
0.0787643 5.4158e-07 8.44336e-07 4.48956e-05 0 -1.54428e-08 0.0787643 -2.7407 
0.0624725 -3.16427e-05 -4.08108e-06 3.56093e-05 0 -1.22485e-08 0.0624725 121.523 
0.140921 -1.65e-05 8.03252e-05 1.10917e-06 0 0.140921 0 44.2798 
0.114447 -2.97332e-05 6.52348e-05 -2.06205e-06 0 0.114447 0 138.157 
0.122307 -4.84932e-05 6.38648e-07 -6.97148e-05 0 0 -0.122307 153.114 
0.0831289 3.15854e-06 3.22003e-06 -4.73835e-05 0 0 -0.0831289 1.21863 
0.114205 -3.23156e-05 -6.50969e-05 2.79096e-06 0 -0.114205 0 159.619 
0.170516 -7.72422e-05 -9.7194e-05 -1.47669e-06 0 -0.170516 0 246.216 
0.105191 -3.96516e-06 2.73128e-06 5.9959e-05 0 0 0.105191 18.2159 
0.108701 2.45483e-06 3.2491e-06 6.19598e-05 0 0 0.108701 -0.805124 
0.128633 -2.03605e-05 -7.33206e-05 -2.32871e-06 0 -0.128633 0 81.2745 
0.105837 -2.97721e-05 -6.03272e-05 -4.65538e-07 0 -0.105837 0 98.6265 
0.234545 -3.50768e-05 1.25478e-06 0.000133691 0 0 0.234545 102.455 
0.15218 -3.47442e-05 5.67506e-07 8.67425e-05 0 0 0.15218 112.248 
0.119906 7.01793e-07 6.83464e-05 -1.12039e-07 0 0.119906 0 -1.87996 
0.0907704 -2.59962e-05 5.17392e-05 -2.23936e-06 0 0.0907704 0 87.8361 
0.12597 -4.0155e-05 1.2463e-05 -7.18027e-05 0 0 -0.12597 147.257 
0.251837 -3.37981e-05 -5.26811e-06 -0.000143547 0 0 -0.251837 79.1707 
0.170757 -3.61309e-05 9.73317e-05 -5.38112e-06 0 0.170757 0 125.845 
0.261958 -2.16107e-05 0.000149316 3.02842e-06 0 0.261958 0 53.9833 
0.168661 -6.00873e-05 1.75348e-05 -9.6137e-05 0 0 -0.168661 173.798 
0.189455 -2.67921e-06 7.83024e-06 -0.00010799 0 0 -0.189455 2.2411 
0.287421 -8.23797e-06 -0.00016383 -5.51781e-06 0 -0.287421 0 38.4563 
0.187761 -3.33315e-05 -0.000107024 7.28984e-06 0 -0.187761 0 59.0681 
0.188246 -1.34193e-05 4.87684e-06 0.0001073 0 0 0.188246 51.0422 
0.180152 -3.22331e-05 -2.11932e-06 0.000102687 0 0 0.180152 107.073 
0.194636 -1.08721e-05 0.000110942 -7.02221e-06 0 0.194636 0 55.4935 
0.0566355 -1.23458e-05 3.22823e-05 -1.86014e-06 0 0.0566355 0 35.1783 
0.1024 -3.35427e-05 9.95397e-06 -5.83682e-05 0 0 -0.1024 147.519 
0.0999236 -2.06668e-05 9.50709e-06 -5.69564e-05 0 0 -0.0999236 103.007 
0.203366 -6.90442e-06 -0.000115919 -1.73601e-05 0 -0.203366 0 74.3262 
0.121777 -9.687e-07 -6.94126e-05 2.42649e-06 0 -0.121777 0 1.10705 
0.171325 -2.27263e-05 -4.53201e-06 9.76552e-05 0 0 0.171325 69.473 
0.147659 -1.1138e-06 1.14229e-06 8.41657e-05 0 0 0.147659 0.0252166 
0.105563 -8.86836e-06 2.77149e-06 -6.01709e-05 0 0 -0.105563 19.8873 
0.0702056 0 0 -4.00172e-05 0 0 -0.0702056 2.28955e-14 
0.0672025 -1.99543e-05 -3.83054e-05 -6.57484e-07 0 -0.0672025 0 51.2543 
0.0664892 -2.91342e-06 -3.78989e-05 -3.93791e-07 0 -0.0664892 0 -1.60999 
0.0955402 -4.12056e-05 1.04328e-05 5.44579e-05 0 0 0.0955402 144.027 
0.0965936 -1.38602e-05 1.04822e-06 5.50583e-05 0 0 0.0965936 39.9664 
0.0691764 0 3.94306e-05 0 0 0.0691764 0 1.98841e-14 
0.0481801 2.36018e-06 2.74627e-05 1.35212e-06 0 0.0481801 0 -0.580555 
0.190233 -5.48615e-05 0.000108433 -5.30059e-06 0 0.190233 0 133.892 
0.153399 -4.95338e-05 8.74374e-05 4.16799e-06 0 0.153399 0 127.835 
0.0695165 1.46554e-07 3.52852e-06 -3.96244e-05 0 0 -0.0695165 1.14844 
0.188275 4.23924e-07 2.78454e-07 -0.000107317 0 0 -0.188275 -0.40039 
0.233229 -2.6022e-06 -0.00013294 8.89309e-06 0 -0.233229 0 19.2167 
0.093585 -4.69517e-05 -5.33434e-05 3.60689e-06 0 -0.093585 0 121.068 
0.108245 -7.5061e-06 -5.71532e-06 6.16995e-05 0 0 0.108245 33.8993 
0.183955 -3.61866e-05 2.91749e-06 0.000104855 0 0 0.183955 93.1969 
0.226599 -2.85106e-05 -1.38996e-05 -0.000129161 0 0 -0.226599 105.073 
0.193302 -2.46018e-05 5.21106e-07 -0.000110182 0 0 -0.193302 81.0031 
0.345456 -1.64146e-05 -0.00019691 9.44246e-06 0 -0.345456 0 48.6866 
0.086014 -2.58309e-05 -4.9028e-05 6.5076e-06 0 -0.086014 0 76.9701 
0.193436 -2.25423e-06 -2.93855e-08 0.000110259 0 0 0.193436 1.59258 
0.145497 -3.8715e-05 7.07544e-06 8.29335e-05 0 0 0.145497 117.219 
0.216514 -4.75409e-05 0.000123413 -1.45216e-07 0 0.216514 4.24504e-08 148.057 
0.138281 -1.8992e-06 7.88204e-05 -1.22898e-06 0 0.138281 2.71119e-08 1.58566 
0.100364 -1.35197e-05 -2.29592e-06 -5.72076e-05 0 0 -0.100364 44.7139 
0.122419 -4.07005e-05 6.38441e-06 -6.97788e-05 0 0 -0.122419 117.68 
0.167421 -1.50501e-05 -9.54302e-05 -1.59877e-06 0 -0.167421 -3.28269e-08 69.4963 
0.178002 -1.71024e-05 -0.000101461 1.96848e-06 0 -0.178002 -3.49016e-08 49.1692 
0.132534 -4.20404e-06 1.01002e-05 7.55446e-05 0 0 0.132534 18.4362 
0.120996 -1.08905e-05 4.22804e-07 6.89675e-05 0 0 0.120996 32.2137 
0.185702 -3.57339e-05 0.00010585 3.60516e-06 0 0.185702 0 96.88 
0.157772 -2.3052e-05 8.99302e-05 7.29264e-06 0 0.157772 0 62.5992 
0.103417 -3.96825e-05 -4.86504e-06 6.04989e-05 0 0 0.103417 128.893 
0.0941966 1.34042e-06 -3.81472e-07 5.5105e-05 0 0 0.0941966 0.962765 
0.282212 -3.70541e-05 0.000160861 -9.77477e-07 0 0.282212 0 104.579 
0.133299 -1.449e-05 7.59802e-05 -8.11086e-06 0 0.133299 0 26.9561 
0.137511 -1.23867e-05 6.76803e-06 -8.04439e-05 0 0 -0.137511 10.8941 
0.0728158 -4.5766e-05 6.64533e-06 -4.25972e-05 0 0 -0.0728158 134.215 
0.0930719 -1.99704e-05 -5.3051e-05 -7.41607e-07 0 -0.0930719 0 56.2599 
0.299197 -1.152e-05 -0.000170542 -7.05633e-07 0 -0.299197 0 63.9398 
0.205132 -4.69723e-05 -3.35084e-06 0.000120002 0 0 0.205132 143.639 
0.238677 -1.31375e-05 1.21418e-06 0.000139626 0 0 0.238677 26.1349 
0.120112 -2.68193e-05 6.84639e-05 -1.53037e-06 0 0.120112 0 59.3055 
0.198402 -4.81576e-05 0.000113089 -1.55471e-06 0 0.198402 0 141.681 
0.0863374 -1.60263e-05 2.43888e-06 -5.05074e-05 0 0 -0.0863374 43.6316 
0.257288 -2.618e-07 -9.98844e-07 -0.000150513 0 0 -0.257288 0.0304615 
0.210619 -1.59201e-05 -0.000120053 -9.18002e-06 0 -0.210619 0 52.3291 
0.113864 -8.4611e-06 -6.49023e-05 -7.46219e-06 0 -0.113864 0 27.0532 
0.0731787 0 0 -4.17119e-05 0 0 -0.0731787 0 
0.132097 -1.76347e-06 3.92896e-07 -7.52951e-05 0 0 -0.132097 -0.674251 
0.132739 -2.39002e-05 -7.56613e-05 -1.15778e-05 0 -0.132739 0 68.6718 
0.068687 -1.55854e-05 -3.91516e-05 -1.46087e-06 0 -0.068687 0 58.5067 
0.0679555 -2.27273e-05 4.94065e-06 3.87346e-05 0 0 0.0679555 77.8703 
0.0953321 -1.7817e-05 1.15254e-06 5.43393e-05 0 0 0.0953321 53.002 
0.0967099 -1.20554e-05 5.51246e-05 1.04594e-05 0 0.0967099 0 31.8896 
0.0825921 -3.80943e-05 4.70775e-05 -1.29931e-07 0 0.0825921 0 119.988 
0.0309112 -4.6543e-06 3.84807e-06 1.8083e-05 0 0 0.0309112 38.1362 
0.0182208 -1.91329e-05 -1.07556e-06 1.06592e-05 0 0 0.0182208 46.6855 
0.0330839 0 1.93541e-05 0 0 0.0330839 0 0 
0.0257762 1.50173e-06 1.50791e-05 -2.89976e-06 0 0.0257762 0 -0.958067 
0.0312895 1.31542e-06 -9.52997e-07 -1.83043e-05 0 0 -0.0312895 -1.81615 
0.00576759 0 0 -1.68702e-06 0 0 -0.00576759 0 
0.011356 0 0 -3.32164e-06 0 0 -0.011356 0 
0.0461969 -2.67072e-05 -2.70252e-05 -4.75784e-06 0 -0.0461969 0 88.0401 
0.0150672 -9.93564e-07 -4.40714e-06 -3.63753e-08 0 -0.0150672 0 2.3061 
0.0193871 0 -5.67072e-06 0 0 -0.0193871 0 0 
0.134622 -7.4171e-05 8.35322e-06 7.87536e-05 0 0 0.134622 221.668 
0.0774727 2.34442e-07 1.86186e-06 4.53215e-05 0 0 0.0774727 0.964922 
0.221068 -3.72386e-05 0.000126009 -5.70212e-06 0 0.221068 0 121.141 
0.0788755 -1.23923e-06 4.4959e-05 -2.60457e-06 0 0.0788755 0 -0.325704 
0.202213 -8.59781e-06 5.11983e-07 -0.000118294 0 0 -0.202213 30.0275 
0.0253716 0 0 -1.48424e-05 0 0 -0.0253716 0 
0.152131 -8.57246e-06 -8.67146e-05 -2.87699e-06 0 -0.152131 0 25.3322 
0.15539 -3.63269e-05 -8.85721e-05 -2.29205e-06 0 -0.15539 0 102.161 