ITEM: TIMESTEP
245
ITEM: NUMBER OF SURFS
6916
ITEM: BOX BOUNDS oo rr rr
-20 20
-20 20
-20 20
ITEM: SURFS f_save[1] f_save[2] f_save[3] f_save[4] f_save[5] f_save[6] f_save[7] f_save[8] 
2.75988e-18 -2.07077e-19 0 0 -2.75988e-18 0 0 0 
2.30804e-19 0 0 -6.92651e-19 0 0 -2.30804e-19 0 
6.46983e-22 4.85404e-23 0 0 6.46983e-22 0 0 5.23882e-35 
1.44673e-18 -3.5264e-20 0 0 -1.44673e-18 0 0 1.33955e-30 
1.40384e-18 -1.7548e-21 0 0 -1.40384e-18 0 0 0 
1.30004e-18 -1.62506e-21 0 0 -1.30004e-18 0 0 0 
1.52652e-18 -1.90816e-21 0 0 -1.52652e-18 0 0 0 
1.43097e-18 -3.48798e-20 0 0 -1.43097e-18 0 0 1.31713e-30 
1.43928e-18 -3.41828e-20 0 0 -1.43928e-18 0 0 0 
1.46287e-18 -3.47431e-20 0 0 -1.46287e-18 0 0 0 
1.54702e-18 -3.67418e-20 0 0 -1.54702e-18 0 0 0 
1.51542e-18 -3.59911e-20 0 0 -1.51542e-18 0 0 0 
1.50405e-18 -3.66612e-20 0 0 -1.50405e-18 0 0 0 
1.49075e-18 -3.54052e-20 0 0 -1.49075e-18 0 0 0 
1.46641e-18 -3.48272e-20 0 0 -1.46641e-18 0 0 0 
1.44849e-18 -3.53071e-20 0 0 -1.44849e-18 0 0 0 
1.47663e-18 -3.59929e-20 0 0 -1.47663e-18 0 0 1.36113e-30 
1.44309e-18 -3.42736e-20 0 0 -1.44309e-18 0 0 1.33551e-30 
1.44564e-18 -3.43339e-20 0 0 -1.44564e-18 0 0 0 
1.46239e-18 -3.56458e-20 0 0 -1.46239e-18 0 0 1.34721e-30 
1.44039e-18 -3.42092e-20 0 0 -1.44039e-18 0 0 0 
1.49543e-18 -3.55165e-20 0 0 -1.49543e-18 0 0 0 
1.45423e-18 -3.5447e-20 0 0 -1.45423e-18 0 0 0 
1.46615e-18 -3.48213e-20 0 0 -1.46615e-18 0 0 0 
1.53291e-18 -3.64065e-20 0 0 -1.53291e-18 0 0 0 
1.49162e-18 -3.54258e-20 0 0 -1.49162e-18 0 0 0 
1.47056e-18 -1.83821e-21 0 0 -1.47056e-18 0 0 0 
1.44034e-18 -3.42081e-20 0 0 -1.44034e-18 0 0 0 
1.43314e-18 -3.40371e-20 0 0 -1.43314e-18 0 0 0 
1.53121e-18 -1.91401e-21 0 0 -1.53121e-18 0 0 0 
1.3918e-18 -3.30551e-20 0 0 -1.3918e-18 0 0 0 
1.40852e-18 -3.34522e-20 0 0 -1.40852e-18 0 0 0 
1.67712e-18 -2.0964e-21 0 0 -1.67712e-18 0 0 0 
1.499e-18 -3.6538e-20 0 0 -1.499e-18 0 0 1.37943e-30 
1.47038e-18 -3.49218e-20 0 0 -1.47038e-18 0 0 0 
1.58732e-18 -1.98416e-21 0 0 -1.58732e-18 0 0 0 
1.45358e-18 -3.54309e-20 0 0 -1.45358e-18 0 0 1.33682e-30 
1.41365e-18 -3.35742e-20 0 0 -1.41365e-18 0 0 0 
1.49076e-18 -1.86346e-21 0 0 -1.49076e-18 0 0 0 
1.40591e-18 -3.33905e-20 0 0 -1.40591e-18 0 0 0 
1.41537e-18 -3.44996e-20 0 0 -1.41537e-18 0 0 0 
1.82961e-18 -2.28703e-21 0 0 -1.82961e-18 0 0 0 
1.43237e-18 -3.40188e-20 0 0 -1.43237e-18 0 0 0 
1.4634e-18 -3.56703e-20 0 0 -1.4634e-18 0 0 0 
1.40937e-18 -1.76171e-21 0 0 -1.40937e-18 0 0 0 
1.49078e-18 -3.54063e-20 0 0 -1.49078e-18 0 0 0 
1.42749e-18 -3.3903e-20 0 0 -1.42749e-18 0 0 0 
1.63266e-18 -2.04083e-21 0 0 -1.63266e-18 0 0 0 
1.2136e-18 -1.51701e-21 0 0 -1.2136e-18 0 0 0 
1.33038e-18 -1.66298e-21 0 0 -1.33038e-18 0 0 0 
1.44362e-18 -3.42862e-20 0 0 -1.44362e-18 0 0 1.33265e-30 
1.47249e-18 -3.49717e-20 0 0 -1.47249e-18 0 0 0 
1.45139e-18 -3.44706e-20 0 0 -1.45139e-18 0 0 1.33447e-30 
1.67491e-18 -2.09364e-21 0 0 -1.67491e-18 0 0 0 
1.43261e-18 -3.40245e-20 0 0 -1.43261e-18 0 0 0 
1.5583e-18 -3.70095e-20 0 0 -1.5583e-18 0 0 0 
1.56746e-18 -3.72272e-20 0 0 -1.56746e-18 0 0 0 
1.54698e-18 -1.93372e-21 0 0 -1.54698e-18 0 0 0 
1.54173e-18 -3.66161e-20 0 0 -1.54173e-18 0 0 0 
1.50527e-18 -3.57502e-20 0 0 -1.50527e-18 0 0 0 
1.46606e-18 -3.4819e-20 0 0 -1.46606e-18 0 0 0 
1.62985e-18 -2.03733e-21 0 0 -1.62985e-18 0 0 0 
1.46652e-18 -3.483e-20 0 0 -1.46652e-18 0 0 0 
1.40136e-18 -3.41581e-20 0 0 -1.40136e-18 0 0 1.29458e-30 
1.59991e-18 -1.9999e-21 0 0 -1.59991e-18 0 0 0 
1.39118e-18 -3.30405e-20 0 0 -1.39118e-18 0 0 0 
1.48526e-18 -3.52749e-20 0 0 -1.48526e-18 0 0 0 
1.63133e-18 -2.03917e-21 0 0 -1.63133e-18 0 0 0 
1.44185e-18 -3.42442e-20 0 0 -1.44185e-18 0 0 0 
1.43412e-18 -3.40605e-20 0 0 -1.43412e-18 0 0 0 
1.49343e-18 -1.86679e-21 0 0 -1.49343e-18 0 0 0 
1.44526e-18 -3.43251e-20 0 0 -1.44526e-18 0 0 0 
1.42513e-18 -3.3847e-20 0 0 -1.42513e-18 0 0 0 
1.35331e-18 -1.69164e-21 0 0 -1.35331e-18 0 0 0 
1.5979e-18 -1.99739e-21 0 0 -1.5979e-18 0 0 0 
1.49961e-18 -3.56158e-20 0 0 -1.49961e-18 0 0 0 
1.49836e-18 -3.5586e-20 0 0 -1.49836e-18 0 0 0 
1.49144e-18 -1.8643e-21 0 0 -1.49144e-18 0 0 0 
1.43198e-18 -3.40096e-20 0 0 -1.43198e-18 0 0 0 
1.43167e-18 -3.4002e-20 0 0 -1.43167e-18 0 0 0 
1.4992e-18 -3.56061e-20 0 0 -1.4992e-18 0 0 0 
1.51005e-18 -3.58636e-20 0 0 -1.51005e-18 0 0 0 
1.50154e-18 -3.56617e-20 0 0 -1.50154e-18 0 0 0 
1.47422e-18 -3.59342e-20 0 0 -1.47422e-18 0 0 0 
1.45525e-18 -3.63814e-20 0 0 -1.45525e-18 0 0 0 
1.47174e-18 -3.67934e-20 0 0 -1.47174e-18 0 0 0 
1.40763e-18 -3.51906e-20 0 0 -1.40763e-18 0 0 0 
1.41203e-18 -3.5301e-20 0 0 -1.41203e-18 0 0 0 
1.46109e-18 -1.25653e-18 0 0 -1.46109e-18 0 0 1.34735e-30 
1.46096e-18 -6.93956e-19 0 0 -1.46096e-18 0 0 1.34664e-30 
1.4585e-18 -6.92785e-19 0 0 -1.4585e-18 0 0 0 
1.45324e-18 -6.90289e-19 0 0 -1.45324e-18 0 0 0 
1.45745e-18 -7.10506e-19 0 0 -1.45745e-18 0 0 0 
1.46406e-18 -1.25909e-18 0 0 -1.46406e-18 0 0 1.34963e-30 
1.46862e-18 -6.97595e-19 0 0 -1.46862e-18 0 0 0 
1.46312e-18 -6.94981e-19 0 0 -1.46312e-18 0 0 0 
1.46693e-18 -6.9679e-19 0 0 -1.46693e-18 0 0 0 
1.46372e-18 -7.13563e-19 0 0 -1.46372e-18 0 0 0 
1.47259e-18 -3.68147e-20 0 0 -1.47259e-18 0 0 1.35717e-30 
1.40242e-18 -3.50606e-20 0 0 -1.40242e-18 0 0 0 
1.51144e-18 -3.7786e-20 0 0 -1.51144e-18 0 0 1.39252e-30 
4.32404e-21 0 0 -2.52956e-20 0 0 -4.32404e-21 0 
2.8024e-20 3.503e-23 0 0 2.8024e-20 0 0 0 
3.72861e-20 8.85545e-22 0 0 3.72861e-20 0 0 0 
1.12655e-20 1.4082e-23 0 0 1.12655e-20 0 0 0 
3.04809e-20 7.23921e-22 0 0 3.04809e-20 0 0 0 
5.93205e-20 1.40886e-21 0 0 5.93205e-20 0 0 0 
1.76317e-20 4.18754e-22 0 0 1.76317e-20 0 0 0 
5.46191e-20 1.29721e-21 0 0 5.46191e-20 0 0 0 
1.81034e-20 4.29956e-22 0 0 1.81034e-20 0 0 0 
5.45916e-20 1.29655e-21 0 0 5.45916e-20 0 0 0 
6.10258e-20 7.43752e-22 0 0 6.10258e-20 0 0 0 
1.30843e-20 3.10753e-22 0 0 1.30843e-20 0 0 1.19155e-32 
3.00331e-20 7.13287e-22 0 0 3.00331e-20 0 0 0 
2.69915e-20 6.41048e-22 0 0 2.69915e-20 0 0 0 
6.7831e-20 1.61099e-21 0 0 6.7831e-20 0 0 0 
2.68946e-20 6.38746e-22 0 0 2.68946e-20 0 0 0 
4.26101e-20 1.01199e-21 0 0 4.26101e-20 0 0 0 
4.86383e-20 1.15516e-21 0 0 4.86383e-20 0 0 0 
2.0982e-20 2.62275e-23 0 0 2.0982e-20 0 0 0 
4.31761e-20 1.02543e-21 0 0 4.31761e-20 0 0 0 
2.64788e-20 6.28871e-22 0 0 2.64788e-20 0 0 0 
2.0488e-20 2.561e-23 0 0 2.0488e-20 0 0 0 
2.59304e-20 6.15847e-22 0 0 2.59304e-20 0 0 0 
3.66598e-20 8.7067e-22 0 0 3.66598e-20 0 0 0 
1.433e-20 1.79124e-23 0 0 1.433e-20 0 0 0 
1.69882e-20 4.0347e-22 0 0 1.69882e-20 0 0 0 
1.40885e-20 3.34603e-22 0 0 1.40885e-20 0 0 0 
5.41792e-20 6.7724e-23 0 0 5.41792e-20 0 0 0 
5.43351e-21 6.79191e-24 0 0 5.43351e-21 0 0 0 
2.25114e-20 5.34646e-22 0 0 2.25114e-20 0 0 0 
1.97327e-20 4.68652e-22 0 0 1.97327e-20 0 0 0 
3.42789e-20 8.14125e-22 0 0 3.42789e-20 0 0 0 
3.58183e-20 8.50684e-22 0 0 3.58183e-20 0 0 0 
0 0 0 0 0 0 0 0 
2.03064e-20 4.82276e-22 0 0 2.03064e-20 0 0 0 
2.33407e-20 5.54342e-22 0 0 2.33407e-20 0 0 0 
6.05557e-21 7.56948e-24 0 0 6.05557e-21 0 0 0 
5.10177e-20 6.37722e-23 0 0 5.10177e-20 0 0 0 
3.2771e-20 7.7831e-22 0 0 3.2771e-20 0 0 0 
2.52683e-20 6.00121e-22 0 0 2.52683e-20 0 0 0 
3.13325e-20 7.44148e-22 0 0 3.13325e-20 0 0 0 
1.75313e-20 2.19142e-23 0 0 1.75313e-20 0 0 0 
2.46012e-20 5.84279e-22 0 0 2.46012e-20 0 0 0 
2.66407e-20 6.32719e-22 0 0 2.66407e-20 0 0 0 
5.00567e-20 6.25709e-23 0 0 5.00567e-20 0 0 0 
5.99792e-20 1.42451e-21 0 0 5.99792e-20 0 0 0 
3.14468e-20 7.4686e-22 0 0 3.14468e-20 0 0 0 
4.35207e-20 1.03362e-21 0 0 4.35207e-20 0 0 0 
2.39413e-20 2.99267e-23 0 0 2.39413e-20 0 0 0 
9.7711e-21 2.38171e-22 0 0 9.7711e-21 0 0 0 
2.9973e-20 3.74665e-23 0 0 2.9973e-20 0 0 0 
3.66731e-20 8.93907e-22 0 0 3.66731e-20 0 0 3.35199e-32 
5.14967e-20 1.22305e-21 0 0 5.14967e-20 0 0 0 
4.83415e-20 1.17832e-21 0 0 4.83415e-20 0 0 0 
5.53638e-20 1.34949e-21 0 0 5.53638e-20 0 0 5.16404e-32 
3.31106e-20 7.86381e-22 0 0 3.31106e-20 0 0 0 
0 0 0 0 0 0 0 0 
1.6567e-20 4.03822e-22 0 0 1.6567e-20 0 0 0 
2.16166e-20 2.7021e-23 0 0 2.16166e-20 0 0 0 
3.00941e-20 3.76178e-23 0 0 3.00941e-20 0 0 0 
4.13641e-20 5.17053e-23 0 0 4.13641e-20 0 0 0 
5.30117e-20 6.62648e-23 0 0 5.30117e-20 0 0 0 
3.42442e-21 4.28055e-24 0 0 3.42442e-21 0 0 0 
5.52736e-21 6.90925e-24 0 0 5.52736e-21 0 0 0 
2.35199e-20 5.73299e-22 0 0 2.35199e-20 0 0 0 
4.28833e-20 1.01848e-21 0 0 4.28833e-20 0 0 0 
6.22233e-20 7.77793e-23 0 0 6.22233e-20 0 0 0 
3.4867e-20 8.49882e-22 0 0 3.4867e-20 0 0 0 
4.11016e-20 9.76166e-22 0 0 4.11016e-20 0 0 0 
3.32139e-20 4.15175e-23 0 0 3.32139e-20 0 0 0 
3.65734e-20 8.91477e-22 0 0 3.65734e-20 0 0 0 
1.37786e-20 3.27242e-22 0 0 1.37786e-20 0 0 1.22878e-32 
1.81287e-20 4.41888e-22 0 0 1.81287e-20 0 0 0 
1.44415e-20 3.42987e-22 0 0 1.44415e-20 0 0 1.30946e-32 
2.94812e-20 7.00182e-22 0 0 2.94812e-20 0 0 0 
6.09184e-20 1.44682e-21 0 0 6.09184e-20 0 0 0 
5.40018e-20 1.28255e-21 0 0 5.40018e-20 0 0 0 
1.90904e-20 4.534e-22 0 0 1.90904e-20 0 0 0 
1.53805e-20 3.65288e-22 0 0 1.53805e-20 0 0 1.37773e-32 
3.86761e-20 9.42728e-22 0 0 3.86761e-20 0 0 3.483e-32 
1.74437e-20 4.25191e-22 0 0 1.74437e-20 0 0 0 
1.03061e-19 6.44136e-23 0 0 1.03061e-19 0 0 0 
3.56577e-20 4.34578e-22 0 0 3.56577e-20 0 0 0 
3.6038e-19 -3.78396e-19 -4.63438e-19 -4.63438e-19 -1.8019e-19 -2.20686e-19 -2.20686e-19 -1.2141e-31 
3.94223e-21 0 0 -5.82971e-19 0 0 -3.94223e-21 0 
2.67241e-21 0 5.41393e-19 -5.41393e-19 0 1.88968e-21 -1.88968e-21 -1.38105e-34 
3.60688e-19 -3.7872e-19 4.63835e-19 4.63835e-19 -1.80344e-19 2.20875e-19 2.20875e-19 -1.2224e-31 
3.94313e-21 0 0 5.83105e-19 0 0 3.94313e-21 0 
3.09452e-21 0 -2.82272e-19 2.82272e-19 0 -2.18816e-21 2.18816e-21 1.91285e-34 
4.79094e-21 0 -2.8027e-20 0 0 -4.79094e-21 0 0 
4.79735e-21 0 2.80645e-20 0 0 4.79735e-21 0 0 
4.51248e-21 0 0 -2.57211e-20 0 0 -4.51248e-21 0 
4.62874e-21 0 0 2.63838e-20 0 0 4.62874e-21 0 
4.54602e-21 0 0 -2.59123e-20 0 0 -4.54602e-21 0 
4.59148e-21 0 0 2.61715e-20 0 0 4.59148e-21 0 
4.85128e-21 0 0 2.76523e-20 0 0 4.85128e-21 0 
4.83661e-21 0 0 -2.75687e-20 0 0 -4.83661e-21 0 
4.42639e-21 0 0 -2.52304e-20 0 0 -4.42639e-21 0 
4.36332e-21 0 0 2.48709e-20 0 0 4.36332e-21 0 
4.5662e-21 0 0 -2.60273e-20 0 0 -4.5662e-21 0 
4.55531e-21 0 0 2.59652e-20 0 0 4.55531e-21 0 
4.81549e-21 0 -2.74483e-20 0 0 -4.81549e-21 0 0 
4.6429e-21 0 2.64645e-20 0 0 4.6429e-21 0 0 
5.06004e-21 0 0 -2.88423e-20 0 0 -5.06004e-21 0 
5.1669e-21 0 0 2.94513e-20 0 0 5.1669e-21 0 
5.05873e-21 0 -2.88347e-20 0 0 -5.05873e-21 0 0 
5.05679e-21 0 2.88237e-20 0 0 5.05679e-21 0 0 
4.82188e-21 0 -2.74847e-20 0 0 -4.82188e-21 0 0 
4.9165e-21 0 2.8024e-20 0 0 4.9165e-21 0 0 
5.12088e-21 0 2.99571e-20 0 0 5.12088e-21 0 0 
5.12029e-21 0 -2.99537e-20 0 0 -5.12029e-21 0 0 
4.98739e-21 0 2.91762e-20 0 0 4.98739e-21 0 0 
4.93387e-21 0 -2.88632e-20 0 0 -4.93387e-21 0 0 
4.73816e-21 0 -2.70075e-20 0 0 -4.73816e-21 0 0 
4.51207e-21 0 2.57188e-20 0 0 4.51207e-21 0 0 
4.29625e-21 0 2.51331e-20 0 0 4.29625e-21 0 0 
4.4333e-21 0 -1.29674e-20 0 0 -4.4333e-21 0 0 
4.30045e-21 0 0 1.25788e-20 0 0 4.30045e-21 0 
5.89188e-21 0 0 -3.35837e-20 0 0 -5.89188e-21 0 
5.64915e-21 0 0 3.22001e-20 0 0 5.64915e-21 0 
4.8843e-21 0 0 2.85732e-20 0 0 4.8843e-21 0 
4.77124e-21 0 0 -2.79117e-20 0 0 -4.77124e-21 0 
4.70265e-21 0 -2.68051e-20 0 0 -4.70265e-21 0 0 
4.64087e-21 0 2.6453e-20 0 0 4.64087e-21 0 0 
5.15736e-21 0 -2.93969e-20 0 0 -5.15736e-21 0 0 
5.04059e-21 0 2.87314e-20 0 0 5.04059e-21 0 0 
4.75791e-21 0 0 2.71201e-20 0 0 4.75791e-21 0 
4.88011e-21 0 0 -2.78166e-20 0 0 -4.88011e-21 0 
5.20219e-21 0 -2.96525e-20 0 0 -5.20219e-21 0 0 
5.04767e-21 0 2.87717e-20 0 0 5.04767e-21 0 0 
4.77383e-21 0 0 2.72108e-20 0 0 4.77383e-21 0 
4.89959e-21 0 0 -2.79277e-20 0 0 -4.89959e-21 0 
4.58042e-21 0 -2.61084e-20 0 0 -4.58042e-21 0 0 
4.49913e-21 0 2.56451e-20 0 0 4.49913e-21 0 0 
5.26167e-21 0 0 2.99915e-20 0 0 5.26167e-21 0 
5.4872e-21 0 0 -3.1277e-20 0 0 -5.4872e-21 0 
5.11668e-21 0 2.91651e-20 0 0 5.11668e-21 0 0 
5.12962e-21 0 -2.92388e-20 0 0 -5.12962e-21 0 0 
4.7088e-21 0 2.68402e-20 0 0 4.7088e-21 0 0 
4.60059e-21 0 -2.62233e-20 0 0 -4.60059e-21 0 0 
5.24268e-21 0 0 -2.98833e-20 0 0 -5.24268e-21 0 
5.13552e-21 0 0 2.92725e-20 0 0 5.13552e-21 0 
5.16624e-21 0 0 2.94475e-20 0 0 5.16624e-21 0 
4.95212e-21 0 0 -2.82271e-20 0 0 -4.95212e-21 0 
5.80716e-21 0 0 3.31008e-20 0 0 5.80716e-21 0 
5.17327e-21 0 0 -2.94876e-20 0 0 -5.17327e-21 0 
5.10122e-21 0 -2.90769e-20 0 0 -5.10122e-21 0 0 
5.00187e-21 0 2.85107e-20 0 0 5.00187e-21 0 0 
4.92362e-21 0 -2.80646e-20 0 0 -4.92362e-21 0 0 
4.80901e-21 0 2.74113e-20 0 0 4.80901e-21 0 0 
4.20157e-21 0 2.45792e-20 0 0 4.20157e-21 0 0 
4.25114e-21 0 0 -2.48692e-20 0 0 -4.25114e-21 0 
4.65397e-21 0 -2.72257e-20 0 0 -4.65397e-21 0 0 
4.6779e-21 0 2.73657e-20 0 0 4.6779e-21 0 0 
5.13574e-21 0 3.00441e-20 0 0 5.13574e-21 0 0 
5.08274e-21 0 -2.9734e-20 0 0 -5.08274e-21 0 0 
4.776e-21 0 0 -2.79396e-20 0 0 -4.776e-21 0 
4.8556e-21 0 0 2.84052e-20 0 0 4.8556e-21 0 
4.90401e-21 0 0 2.86885e-20 0 0 4.90401e-21 0 
4.8228e-21 0 0 -2.82134e-20 0 0 -4.8228e-21 0 
5.3559e-21 0 -3.05286e-20 0 0 -5.3559e-21 0 0 
5.64064e-21 0 3.21516e-20 0 0 5.64064e-21 0 0 
5.08879e-21 0 0 -2.97694e-20 0 0 -5.08879e-21 0 
5.14675e-21 0 0 3.01085e-20 0 0 5.14675e-21 0 
4.1605e-21 0 -1.21695e-20 0 0 -4.1605e-21 0 0 
4.91614e-21 0 -2.87594e-20 0 0 -4.91614e-21 0 0 
4.89851e-21 0 2.86563e-20 0 0 4.89851e-21 0 0 
4.61785e-21 0 -2.70144e-20 0 0 -4.61785e-21 0 0 
4.66184e-21 0 2.72717e-20 0 0 4.66184e-21 0 0 
4.76374e-21 0 -2.71533e-20 0 0 -4.76374e-21 0 0 
4.93305e-21 0 2.81184e-20 0 0 4.93305e-21 0 0 
4.85576e-21 0 0 -2.84062e-20 0 0 -4.85576e-21 0 
4.86828e-21 0 0 2.84794e-20 0 0 4.86828e-21 0 
5.41672e-21 0 3.08753e-20 0 0 5.41672e-21 0 0 
5.30716e-21 0 -3.02508e-20 0 0 -5.30716e-21 0 0 
4.58525e-21 0 0 2.61359e-20 0 0 4.58525e-21 0 
4.53118e-21 0 0 -2.58277e-20 0 0 -4.53118e-21 0 
4.22594e-21 0 0 2.47218e-20 0 0 4.22594e-21 0 
4.33647e-21 0 1.26842e-20 0 0 4.33647e-21 0 0 
5.02929e-21 0 -2.8667e-20 0 0 -5.02929e-21 0 0 
4.83425e-21 0 2.75552e-20 0 0 4.83425e-21 0 0 
4.79746e-21 0 2.73455e-20 0 0 4.79746e-21 0 0 
4.78472e-21 0 -2.72729e-20 0 0 -4.78472e-21 0 0 
4.51823e-21 0 2.57539e-20 0 0 4.51823e-21 0 0 
4.65066e-21 0 -2.65088e-20 0 0 -4.65066e-21 0 0 
4.58241e-21 0 0 -2.61198e-20 0 0 -4.58241e-21 0 
4.62462e-21 0 0 2.63603e-20 0 0 4.62462e-21 0 
5.37368e-21 0 3.063e-20 0 0 5.37368e-21 0 0 
5.17777e-21 0 -2.95133e-20 0 0 -5.17777e-21 0 0 
4.59017e-21 0 0 -2.6164e-20 0 0 -4.59017e-21 0 
4.62411e-21 0 0 2.63574e-20 0 0 4.62411e-21 0 
4.61644e-21 0 2.63137e-20 0 0 4.61644e-21 0 0 
4.653e-21 0 -2.65221e-20 0 0 -4.653e-21 0 0 
4.85703e-21 0 -2.76851e-20 0 0 -4.85703e-21 0 0 
4.64021e-21 0 2.64492e-20 0 0 4.64021e-21 0 0 
4.68364e-21 0 0 -2.66968e-20 0 0 -4.68364e-21 0 
4.53233e-21 0 0 2.58343e-20 0 0 4.53233e-21 0 
4.69359e-21 0 0 -2.67535e-20 0 0 -4.69359e-21 0 
4.73174e-21 0 0 2.69709e-20 0 0 4.73174e-21 0 
4.42104e-21 0 0 2.51999e-20 0 0 4.42104e-21 0 
4.52974e-21 0 0 -2.58195e-20 0 0 -4.52974e-21 0 
4.46062e-21 0 -2.54255e-20 0 0 -4.46062e-21 0 0 
4.49217e-21 0 2.56054e-20 0 0 4.49217e-21 0 0 
4.31281e-21 0 0 2.4583e-20 0 0 4.31281e-21 0 
4.44621e-21 0 0 -2.53434e-20 0 0 -4.44621e-21 0 
4.64657e-21 0 0 -2.64854e-20 0 0 -4.64657e-21 0 
4.88404e-21 0 0 2.7839e-20 0 0 4.88404e-21 0 
4.74747e-21 0 2.70606e-20 0 0 4.74747e-21 0 0 
4.72602e-21 0 -2.69383e-20 0 0 -4.72602e-21 0 0 
4.48094e-21 0 -2.55414e-20 0 0 -4.48094e-21 0 0 
4.48847e-21 0 2.55843e-20 0 0 4.48847e-21 0 0 
4.62066e-21 0 0 2.63378e-20 0 0 4.62066e-21 0 
4.63479e-21 0 0 -2.64183e-20 0 0 -4.63479e-21 0 
4.83965e-21 0 2.7586e-20 0 0 4.83965e-21 0 0 
4.9552e-21 0 -2.82446e-20 0 0 -4.9552e-21 0 0 
4.62345e-21 0 0 2.63537e-20 0 0 4.62345e-21 0 
4.6408e-21 0 0 -2.64526e-20 0 0 -4.6408e-21 0 
5.60124e-21 -7.59171e-24 0 -3.99089e-21 -1.0655e-23 0 -5.60123e-21 -2.64789e-34 
1.21615e-20 -1.49092e-22 -5.00963e-23 -2.24055e-21 -8.07273e-22 -2.71251e-22 -1.21317e-20 5.13426e-34 
8.01571e-21 -5.74526e-23 -2.52737e-23 -1.48249e-21 -3.10364e-22 -1.36531e-22 -8.00853e-21 4.93661e-34 
1.45755e-20 -1.79495e-22 -1.20082e-22 -2.63767e-21 -9.88569e-22 -6.61349e-22 -1.45269e-20 -1.29882e-33 
5.87428e-21 -6.99111e-25 -2.10078e-27 -1.46857e-21 -2.79644e-24 -8.4031e-27 -5.87428e-21 -2.23447e-33 
6.52326e-21 -9.24179e-24 -4.84649e-23 -1.56687e-21 -3.84568e-23 -2.01671e-22 -6.52003e-21 -1.4311e-35 
5.85717e-21 -1.03541e-23 -3.2762e-23 -9.44185e-22 -6.41884e-23 -2.03102e-22 -5.8533e-21 -5.60423e-34 
5.81386e-21 -1.89629e-23 -4.57314e-23 -1.05053e-21 -1.04829e-22 -2.52808e-22 -5.80741e-21 1.358e-34 
8.61345e-21 -6.08316e-23 -2.71584e-23 -1.59304e-21 -3.28625e-22 -1.46715e-22 -8.60592e-21 1.10678e-33 
7.14323e-21 -3.99335e-23 -6.75696e-23 -1.28467e-21 -2.21632e-22 -3.75013e-22 -7.12993e-21 -1.7315e-33 
8.76676e-21 -8.37877e-23 -6.40663e-23 -1.59318e-21 -4.60051e-22 -3.51767e-22 -8.74761e-21 5.61104e-34 
4.71855e-21 -7.3488e-24 -1.78739e-23 -1.54313e-21 -2.24692e-23 -5.46499e-23 -4.71818e-21 -3.62029e-34 
6.68101e-21 -1.93701e-23 -1.24573e-23 -1.10133e-21 -1.17479e-22 -7.55533e-23 -6.67955e-21 4.0227e-34 
7.60335e-21 -1.04514e-23 -3.61031e-23 -9.11033e-22 -8.71522e-23 -3.01056e-22 -7.59689e-21 -1.35198e-33 
4.99729e-21 -8.67108e-24 -1.4103e-23 -8.16108e-22 -5.30848e-23 -8.63393e-23 -4.99626e-21 6.37657e-34 
5.67942e-21 -1.80137e-24 0 -1.06489e-22 -9.60592e-23 0 -5.67861e-21 6.81183e-34 
6.41906e-21 -2.07444e-23 3.36615e-23 -1.17445e-21 -1.13317e-22 1.83876e-22 -6.41543e-21 -1.10303e-33 
5.86542e-21 -2.14939e-23 0 -2.08956e-21 -6.03305e-23 0 -5.86511e-21 4.21986e-34 
6.69246e-21 -8.53025e-25 2.14761e-23 -1.61221e-21 -3.54068e-24 8.91415e-23 -6.69186e-21 1.01761e-33 
6.11496e-21 -8.66333e-24 4.54313e-23 -1.4688e-21 -3.60497e-23 1.89048e-22 -6.11193e-21 -5.94928e-34 
1.00104e-20 -9.57858e-23 8.24711e-23 -1.81153e-21 -5.28021e-22 4.54623e-22 -9.98608e-21 4.90211e-34 
7.07783e-21 -5.00513e-23 2.58622e-23 -1.30667e-21 -2.70861e-22 1.39957e-22 -7.07126e-21 -5.87594e-34 
8.95939e-21 -7.75231e-23 9.82113e-23 -1.60233e-21 -4.32153e-22 5.4748e-22 -8.9322e-21 1.61316e-33 
6.15076e-21 -3.07603e-23 3.87875e-23 -1.12187e-21 -1.68482e-22 2.12449e-22 -6.14478e-21 -2.58338e-34 
7.00219e-21 -1.36298e-23 3.91666e-23 -1.12876e-21 -8.44944e-23 2.42803e-22 -6.99747e-21 1.52591e-33 
5.72689e-21 -9.92032e-24 1.06783e-23 -9.44049e-22 -6.01725e-23 6.47699e-23 -5.72621e-21 -1.57944e-34 
6.74628e-21 -6.30605e-23 0 -2.40336e-21 -1.76951e-22 0 -6.74396e-21 1.95491e-33 
5.63791e-21 -1.91355e-24 0 -4.01701e-21 -2.68568e-24 0 -5.63791e-21 6.84039e-34 
5.51649e-21 -9.08459e-24 3.24036e-23 -1.34175e-21 -3.73388e-23 1.33183e-22 -5.51476e-21 3.31172e-34 
1.18498e-20 -1.40998e-22 0 -2.16629e-21 -7.69644e-22 0 -1.18248e-20 -9.97639e-34 
6.52449e-21 -8.84305e-24 4.6487e-21 0 -1.24113e-23 6.52448e-21 0 -4.37178e-34 
1.32577e-20 -1.62531e-22 2.44251e-21 -5.46119e-23 -8.80039e-22 1.32252e-20 -2.95701e-22 -6.70264e-50 
7.19854e-21 -5.15956e-23 1.33136e-21 -2.26972e-23 -2.78724e-22 7.1921e-21 -1.22612e-22 -4.64466e-34 
1.51665e-20 -1.86773e-22 2.74462e-21 -1.24951e-22 -1.02865e-21 1.51159e-20 -6.88164e-22 -6.30469e-34 
5.13908e-21 -6.11612e-25 1.28477e-21 -1.83785e-27 -2.44645e-24 5.13908e-21 -7.3514e-27 9.15799e-34 
6.60497e-21 -9.35754e-24 1.58649e-21 -4.90719e-23 -3.89385e-23 6.60169e-21 -2.04197e-22 4.00708e-34 
5.05361e-21 -8.9336e-24 8.1465e-22 -2.82673e-23 -5.53822e-23 5.05027e-21 -1.75238e-22 -4.29455e-34 
7.3014e-21 -2.38147e-23 1.31931e-21 -5.74324e-23 -1.3165e-22 7.29331e-21 -3.17492e-22 -4.10117e-34 
7.42799e-21 -5.24595e-23 1.37379e-21 -2.34207e-23 -2.83397e-22 7.42151e-21 -1.26523e-22 7.96245e-34 
9.1005e-21 -5.08755e-23 1.63667e-21 -8.6084e-23 -2.8236e-22 9.08356e-21 -4.77768e-22 -2.19505e-33 
9.78419e-21 -9.35118e-23 1.77807e-21 -7.15015e-23 -5.13443e-22 9.76282e-21 -3.92591e-22 4.04642e-34 
4.93572e-21 -7.68701e-24 1.61415e-21 -1.86965e-23 -2.35033e-23 4.93533e-21 -5.71651e-23 2.11809e-34 
5.41113e-21 -1.56883e-23 8.91997e-22 -1.00895e-23 -9.51495e-23 5.40995e-21 -6.11926e-23 3.18836e-34 
6.74841e-21 -9.27625e-24 8.08593e-22 -3.20436e-23 -7.73525e-23 6.74267e-21 -2.67204e-22 -2.45815e-33 
4.75628e-21 -8.25289e-24 7.76749e-22 -1.34228e-23 -5.05246e-23 4.7553e-21 -8.21753e-23 9.80549e-34 
3.52614e-21 -1.1184e-24 6.61152e-23 0 -5.96395e-23 3.52563e-21 0 4.19189e-34 
5.9643e-21 -1.92748e-23 1.09124e-21 3.12767e-23 -1.05289e-22 5.96092e-21 1.70849e-22 -7.75613e-34 
5.70014e-21 -2.08882e-23 2.03068e-21 0 -5.86305e-23 5.69984e-21 0 1.90307e-34 
5.9329e-21 -7.56211e-25 1.42923e-21 1.90387e-23 -3.13884e-24 5.93238e-21 7.90245e-23 4.0582e-34 
6.3483e-21 -8.99391e-24 1.52484e-21 4.7165e-23 -3.74253e-23 6.34516e-21 1.96262e-22 -1.27777e-33 
1.0215e-20 -9.77437e-23 1.84856e-21 8.41569e-23 -5.38814e-22 1.01902e-20 4.63916e-22 6.68962e-34 
6.86064e-21 -4.85154e-23 1.26657e-21 2.50686e-23 -2.62549e-22 6.85427e-21 1.35663e-22 2.31581e-33 
9.76727e-21 -8.45135e-23 1.74681e-21 1.07067e-22 -4.71121e-22 9.73763e-21 5.96847e-22 7.28522e-34 
8.14747e-21 -4.07461e-23 1.48607e-21 5.13791e-23 -2.23176e-22 8.13955e-21 2.81416e-22 -7.56175e-34 
7.53917e-21 -1.4675e-23 1.21532e-21 4.21702e-23 -9.0974e-23 7.53408e-21 2.61423e-22 1.48632e-33 
6.25651e-21 -1.08377e-23 1.03135e-21 1.16658e-23 -6.57373e-23 6.25577e-21 7.07598e-23 1.04303e-34 
7.20891e-21 -6.73849e-23 2.56818e-21 0 -1.89086e-22 7.20643e-21 0 1.67918e-33 
5.45487e-21 -1.85142e-24 3.8866e-21 0 -2.59848e-24 5.45487e-21 0 6.55768e-34 
5.63049e-21 -9.27233e-24 1.36948e-21 3.30732e-23 -3.81104e-23 5.62872e-21 1.35935e-22 -2.12031e-34 
1.33541e-20 -1.58897e-22 2.44129e-21 0 -8.67345e-22 1.33259e-20 0 -1.14514e-33 
5.8424e-21 -7.91857e-24 0 4.16271e-21 -1.11138e-23 0 5.84239e-21 -3.94425e-34 
1.23689e-20 -1.51635e-22 5.09507e-23 2.27876e-21 -8.21041e-22 2.75878e-22 1.23386e-20 -5.29387e-34 
7.70484e-21 -5.52244e-23 2.42935e-23 1.42499e-21 -2.98327e-22 1.31236e-22 7.69794e-21 -4.14038e-34 
1.4943e-20 -1.84021e-22 1.23109e-22 2.70416e-21 -1.01349e-21 6.78022e-22 1.48932e-20 -3.24705e-34 
5.53414e-21 -6.58629e-25 1.97913e-27 1.38353e-21 -2.63452e-24 7.91653e-27 5.53414e-21 6.93728e-34 
6.38497e-21 -9.04586e-24 4.74374e-23 1.53365e-21 -3.76415e-23 1.97396e-22 6.38181e-21 1.6151e-34 
4.91325e-21 -8.68547e-24 2.74822e-23 7.92023e-22 -5.3844e-23 1.70371e-22 4.91e-21 -2.89349e-34 
5.88245e-21 -1.91866e-23 4.62709e-23 1.06292e-21 -1.06065e-22 2.5579e-22 5.87592e-21 -8.41961e-35 
8.30586e-21 -5.86593e-23 2.61886e-23 1.53615e-21 -3.1689e-22 1.41476e-22 8.29861e-21 1.02185e-33 
6.80212e-21 -3.80266e-23 6.4343e-23 1.22332e-21 -2.11048e-22 3.57105e-22 6.78946e-21 -1.42337e-33 
9.32647e-21 -8.91371e-23 6.81565e-23 1.69489e-21 -4.89423e-22 3.74225e-22 9.3061e-21 -4.6399e-34 
5.70343e-21 -8.88268e-24 2.16046e-23 1.86522e-21 -2.71591e-23 6.60567e-23 5.70299e-21 -1.62237e-34 
6.1122e-21 -1.77209e-23 1.13967e-23 1.00757e-21 -1.07477e-22 6.91208e-23 6.11087e-21 1.72827e-34 
8.24541e-21 -1.1334e-23 3.91518e-23 9.87963e-22 -9.45116e-23 3.26478e-22 8.2384e-21 -1.96652e-33 
6.12438e-21 -1.06268e-23 1.72838e-23 1.00017e-21 -6.50576e-23 1.05812e-22 6.12312e-21 1.79868e-33 
4.71419e-21 -1.49522e-24 0 8.83911e-23 -7.97336e-23 0 4.71351e-21 -7.8598e-34 
5.53575e-21 -1.78899e-23 -2.90294e-23 1.01283e-21 -9.77236e-23 -1.58574e-22 5.53262e-21 -8.66861e-34 
5.51101e-21 -2.01951e-23 0 1.9633e-21 -5.66851e-23 0 5.51072e-21 7.86052e-35 
6.53681e-21 -8.33185e-25 -2.09766e-23 1.57471e-21 -3.45834e-24 -8.70683e-23 6.53623e-21 8.667e-34 
5.46709e-21 -7.74546e-24 -4.06179e-23 1.31318e-21 -3.22303e-23 -1.69019e-22 5.46438e-21 -1.0631e-33 
1.0196e-20 -9.75625e-23 -8.40009e-23 1.84513e-21 -5.37815e-22 -4.63056e-22 1.01713e-20 -1.05626e-34 
7.36665e-21 -5.20937e-23 -2.69175e-23 1.35999e-21 -2.81914e-22 -1.45669e-22 7.35981e-21 -9.78437e-34 
9.58889e-21 -8.29701e-23 -1.05112e-22 1.71491e-21 -4.62517e-22 -5.85947e-22 9.55979e-21 2.62377e-33 
7.08768e-21 -3.5446e-23 -4.46959e-23 1.29277e-21 -1.94146e-22 -2.4481e-22 7.08079e-21 -1.56079e-33 
6.69581e-21 -1.30334e-23 -3.74528e-23 1.07937e-21 -8.07973e-23 -2.32179e-22 6.69129e-21 1.13606e-33 
5.35458e-21 -9.27539e-24 -9.98405e-24 8.82675e-22 -5.62607e-23 -6.05591e-23 5.35394e-21 -1.66884e-34 
6.74673e-21 -6.30647e-23 0 2.40352e-21 -1.76963e-22 0 6.74441e-21 2.28165e-33 
5.8258e-21 -1.97732e-24 0 4.15088e-21 -2.77518e-24 0 5.8258e-21 5.10271e-34 
5.79055e-21 -9.53592e-24 -3.40134e-23 1.40841e-21 -3.91938e-23 -1.39799e-22 5.78873e-21 -1.19141e-34 
1.16066e-20 -1.38104e-22 0 2.12183e-21 -7.53847e-22 0 1.15821e-20 -8.79639e-34 
5.98503e-21 -8.11188e-24 -4.26433e-21 0 -1.13851e-23 -5.98501e-21 0 -1.61356e-34 
1.2824e-20 -1.57213e-22 -2.36259e-21 5.2825e-23 -8.51244e-22 -1.27925e-20 2.86026e-22 7.26245e-34 
6.83659e-21 -4.90013e-23 -1.26441e-21 2.15559e-23 -2.64709e-22 -6.83047e-21 1.16447e-22 1.3005e-34 
1.62131e-20 -1.99661e-22 -2.934e-21 1.33573e-22 -1.09963e-21 -1.6159e-20 7.3565e-22 -1.196e-33 
5.05245e-21 -6.01303e-25 -1.26311e-21 1.80687e-27 -2.40521e-24 -5.05245e-21 7.22748e-27 9.31521e-34 
5.56527e-21 -7.88456e-24 -1.33676e-21 4.13474e-23 -3.28091e-23 -5.56251e-21 1.72054e-22 4.57952e-34 
5.76215e-21 -1.01861e-23 -9.28867e-22 3.22305e-23 -6.3147e-23 -5.75834e-21 1.99807e-22 -4.84279e-34 
6.32642e-21 -2.06347e-23 -1.14314e-21 4.97632e-23 -1.14071e-22 -6.3194e-21 2.75096e-22 -1.0864e-35 
8.07362e-21 -5.70191e-23 -1.4932e-21 2.54563e-23 -3.08029e-22 -8.06657e-21 1.3752e-22 9.2099e-34 
9.43806e-21 -5.27626e-23 -1.69738e-21 8.9277e-23 -2.92833e-22 -9.42049e-21 4.95489e-22 -2.81403e-33 
9.21743e-21 -8.80949e-23 -1.67507e-21 6.73596e-23 -4.83701e-22 -9.19729e-21 3.6985e-22 -2.69762e-35 
4.97871e-21 -7.75398e-24 -1.62821e-21 1.88593e-23 -2.3708e-23 -4.97832e-21 5.7663e-23 -1.15669e-34 
5.47582e-21 -1.58759e-23 -9.02662e-22 1.02101e-23 -9.62871e-23 -5.47463e-21 6.19242e-23 5.84037e-34 
8.50092e-21 -1.16852e-23 -1.01858e-21 4.0365e-23 -9.74404e-23 -8.4937e-21 3.36595e-22 -2.63431e-33 
5.05121e-21 -8.76465e-24 -8.24914e-22 1.42552e-23 -5.36576e-23 -5.05017e-21 8.7271e-23 3.97032e-34 
2.52095e-21 -7.99583e-25 -4.72679e-23 0 -4.26382e-23 -2.52059e-21 0 7.8598e-34 
5.84874e-21 -1.89013e-23 -1.0701e-21 -3.06707e-23 -1.03249e-22 -5.84543e-21 -1.67539e-22 -1.04936e-33 
5.28245e-21 -1.93576e-23 -1.88187e-21 0 -5.43342e-23 -5.28217e-21 0 3.32348e-34 
6.89157e-21 -8.78404e-25 -1.66018e-21 -2.2115e-23 -3.64603e-24 -6.89096e-21 -9.17937e-23 8.46307e-34 
5.89525e-21 -8.35205e-24 -1.41602e-21 -4.3799e-23 -3.47545e-23 -5.89233e-21 -1.82256e-22 -8.15726e-34 
1.17112e-20 -1.12061e-22 -2.11933e-21 -9.6484e-23 -6.17738e-22 -1.16828e-20 -5.31869e-22 5.36253e-34 
6.91261e-21 -4.88829e-23 -1.27617e-21 -2.52585e-23 -2.64538e-22 -6.90619e-21 -1.3669e-22 1.44107e-33 
9.28609e-21 -8.03499e-23 -1.66076e-21 -1.01793e-22 -4.47911e-22 -9.2579e-21 -5.67443e-22 7.86037e-34 
8.22069e-21 -4.11122e-23 -1.49942e-21 -5.18409e-23 -2.25182e-22 -8.2127e-21 -2.83945e-22 -1.12215e-33 
6.69233e-21 -1.30267e-23 -1.07881e-21 -3.74334e-23 -8.07554e-23 -6.68782e-21 -2.32059e-22 1.69038e-33 
5.3462e-21 -9.26087e-24 -8.81294e-22 -9.96843e-24 -5.61726e-23 -5.34556e-21 -6.04643e-23 -5.84095e-34 
6.64107e-21 -6.20771e-23 -2.36588e-21 0 -1.74191e-22 -6.63879e-21 0 1.77844e-33 
5.80768e-21 -1.97117e-24 -4.13797e-21 0 -2.76655e-24 -5.80768e-21 0 3.92357e-34 
5.2268e-21 -8.60753e-24 -1.27129e-21 -3.07019e-23 -3.5378e-23 -5.22516e-21 -1.26189e-22 3.02901e-35 
1.20432e-20 -1.433e-22 -2.20165e-21 0 -7.82206e-22 -1.20178e-20 0 -1.08078e-33 
4.72979e-20 0 -3.95095e-20 -3.95095e-20 0 -3.34447e-20 -3.34447e-20 2.35341e-32 
0 0 0 0 0 0 0 0 
0 0 0 0 0 0 0 0 
0 0 0 0 0 0 0 0 
0 0 0 0 0 0 0 0 
0 0 0 0 0 0 0 0 
0 0 0 0 0 0 0 0 
0 0 0 0 0 0 0 0 
0 0 0 0 0 0 0 0 
0 0 0 0 0 0 0 0 
0 0 0 0 0 0 0 0 
0 0 0 0 0 0 0 0 
0 0 0 0 0 0 0 0 
0 0 0 0 0 0 0 0 
0 0 0 0 0 0 0 0 
0 0 0 0 0 0 0 0 
0 0 0 0 0 0 0 0 
0 0 0 0 0 0 0 0 
0 0 0 0 0 0 0 0 
0 0 0 0 0 0 0 0 
0 0 0 0 0 0 0 0 
0 0 0 0 0 0 0 0 
0 0 0 0 0 0 0 0 
0 0 0 0 0 0 0 0 
0 0 0 0 0 0 0 0 
0 0 0 0 0 0 0 0 
0 0 0 0 0 0 0 0 
0 0 0 0 0 0 0 0 
0 0 0 0 0 0 0 0 
0 0 0 0 0 0 0 0 
0 0 0 0 0 0 0 0 
0 0 0 0 0 0 0 0 
0 0 0 0 0 0 0 0 
0 0 0 0 0 0 0 0 
0 0 0 0 0 0 0 0 
0 0 0 0 0 0 0 0 
0 0 0 0 0 0 0 0 
0 0 0 0 0 0 0 0 
0 0 0 0 0 0 0 0 
0 0 0 0 0 0 0 0 
0 0 0 0 0 0 0 0 
0 0 0 0 0 0 0 0 
0 0 0 0 0 0 0 0 
0 0 0 0 0 0 0 0 
0 0 0 0 0 0 0 0 
0 0 0 0 0 0 0 0 
0 0 0 0 0 0 0 0 
4.72808e-20 0 3.94952e-20 3.94952e-20 0 3.34326e-20 3.34326e-20 2.39425e-32 
5.22631e-20 -2.13864e-21 -3.24101e-22 -1.20692e-20 -9.1157e-21 -1.38144e-21 -5.14435e-20 -2.60134e-32 
5.75436e-20 -3.49504e-21 -1.27625e-21 -1.93813e-20 -1.01908e-20 -3.72127e-21 -5.65117e-20 -1.68382e-32 
4.37608e-20 -1.6014e-21 -2.81624e-22 -8.95626e-21 -7.69871e-21 -1.3539e-21 -4.3057e-20 -1.86358e-33 
9.19647e-20 -2.76233e-21 -2.20414e-21 -1.09206e-20 -2.21322e-20 -1.76599e-20 -8.74975e-20 -7.4438e-33 
1.05241e-19 -1.74464e-21 -1.03162e-21 -7.01571e-21 -2.51427e-20 -1.48671e-20 -1.01106e-19 -5.09085e-33 
1.03578e-19 -1.82133e-21 -7.21127e-22 -7.48653e-21 -2.43777e-20 -9.65199e-21 -1.00204e-19 9.522e-33 
6.07755e-20 -9.95306e-22 -3.64142e-22 -4.48856e-21 -1.31159e-20 -4.79857e-21 -5.91491e-20 6.36428e-33 
4.43873e-20 -1.39393e-21 -3.90184e-22 -7.65689e-21 -7.94002e-21 -2.22255e-21 -4.36148e-20 -1.959e-35 
4.84692e-20 -1.68831e-21 -4.51972e-22 -9.09338e-21 -8.83723e-21 -2.36578e-21 -4.7598e-20 -6.00746e-33 
4.98111e-20 -1.60103e-21 -7.06186e-22 -8.51105e-21 -9.17809e-21 -4.04829e-21 -4.87906e-20 1.75185e-33 
5.42032e-20 -1.80726e-21 -9.12579e-22 -9.22651e-21 -1.03704e-20 -5.23656e-21 -5.29435e-20 1.57877e-34 
1.47552e-19 -3.41685e-21 -3.01207e-21 -1.69792e-20 -2.8679e-20 -2.52816e-20 -1.42513e-19 4.54273e-32 
5.22417e-20 -1.96073e-21 -1.13332e-21 -9.79938e-21 -1.01844e-20 -5.88669e-21 -5.09001e-20 -3.26396e-33 
5.42208e-20 -1.18097e-21 -4.12243e-22 -5.81511e-21 -1.07653e-20 -3.75785e-21 -5.30083e-20 1.21549e-32 
5.58438e-20 -1.54512e-21 -8.33582e-22 -7.28062e-21 -1.15212e-20 -6.21558e-21 -5.42877e-20 -3.33372e-34 
8.13472e-20 -1.36715e-21 -6.48192e-22 -5.5826e-21 -1.92278e-20 -9.11628e-21 -7.85147e-20 -1.87879e-32 
6.2966e-20 -9.80014e-22 -4.30911e-22 -4.39751e-21 -1.36342e-20 -5.99492e-21 -6.11791e-20 -1.7088e-32 