ITEM: TIMESTEP
275
ITEM: NUMBER OF SURFS
6916
ITEM: BOX BOUNDS oo rr rr
-20 20
-20 20
-20 20
ITEM: SURFS f_save[1] f_save[2] f_save[3] f_save[4] f_save[5] f_save[6] f_save[7] f_save[8] 
2.90464e-18 -2.17939e-19 0 0 -2.90464e-18 0 0 0 
2.55136e-19 0 0 -7.6567e-19 0 0 -2.55136e-19 0 
1.10869e-21 8.318e-23 0 0 1.10869e-21 0 0 1.4002e-34 
1.45714e-18 -3.55178e-20 0 0 -1.45714e-18 0 0 1.35002e-30 
1.45884e-18 -1.82355e-21 0 0 -1.45884e-18 0 0 0 
1.38167e-18 -1.7271e-21 0 0 -1.38167e-18 0 0 0 
1.59771e-18 -1.99714e-21 0 0 -1.59771e-18 0 0 0 
1.45279e-18 -3.54118e-20 0 0 -1.45279e-18 0 0 1.33849e-30 
1.43144e-18 -3.39968e-20 0 0 -1.43144e-18 0 0 0 
1.47976e-18 -3.51442e-20 0 0 -1.47976e-18 0 0 0 
1.54354e-18 -3.66592e-20 0 0 -1.54354e-18 0 0 0 
1.51948e-18 -3.60877e-20 0 0 -1.51948e-18 0 0 0 
1.51569e-18 -3.6945e-20 0 0 -1.51569e-18 0 0 0 
1.47861e-18 -3.51169e-20 0 0 -1.47861e-18 0 0 0 
1.47077e-18 -3.49307e-20 0 0 -1.47077e-18 0 0 0 
1.46053e-18 -3.56005e-20 0 0 -1.46053e-18 0 0 0 
1.47707e-18 -3.60035e-20 0 0 -1.47707e-18 0 0 1.36203e-30 
1.48291e-18 -3.52192e-20 0 0 -1.48291e-18 0 0 1.36879e-30 
1.46318e-18 -3.47506e-20 0 0 -1.46318e-18 0 0 0 
1.47419e-18 -3.59334e-20 0 0 -1.47419e-18 0 0 1.36033e-30 
1.45782e-18 -3.46233e-20 0 0 -1.45782e-18 0 0 0 
1.51655e-18 -3.60181e-20 0 0 -1.51655e-18 0 0 0 
1.47034e-18 -3.58396e-20 0 0 -1.47034e-18 0 0 0 
1.48752e-18 -3.53288e-20 0 0 -1.48752e-18 0 0 0 
1.54143e-18 -3.66089e-20 0 0 -1.54143e-18 0 0 0 
1.49865e-18 -3.55929e-20 0 0 -1.49865e-18 0 0 0 
1.51972e-18 -1.89965e-21 0 0 -1.51972e-18 0 0 0 
1.44057e-18 -3.42135e-20 0 0 -1.44057e-18 0 0 0 
1.45425e-18 -3.45386e-20 0 0 -1.45425e-18 0 0 0 
1.56796e-18 -1.95995e-21 0 0 -1.56796e-18 0 0 0 
1.39695e-18 -3.31776e-20 0 0 -1.39695e-18 0 0 0 
1.41382e-18 -3.35783e-20 0 0 -1.41382e-18 0 0 0 
1.65051e-18 -2.06314e-21 0 0 -1.65051e-18 0 0 0 
1.50827e-18 -3.67639e-20 0 0 -1.50827e-18 0 0 1.38782e-30 
1.47214e-18 -3.49636e-20 0 0 -1.47214e-18 0 0 0 
1.53801e-18 -1.92252e-21 0 0 -1.53801e-18 0 0 0 
1.44579e-18 -3.5241e-20 0 0 -1.44579e-18 0 0 1.32847e-30 
1.41833e-18 -3.36855e-20 0 0 -1.41833e-18 0 0 0 
1.47284e-18 -1.84106e-21 0 0 -1.47284e-18 0 0 0 
1.41853e-18 -3.36901e-20 0 0 -1.41853e-18 0 0 0 
1.44254e-18 -3.51618e-20 0 0 -1.44254e-18 0 0 0 
1.73097e-18 -2.16373e-21 0 0 -1.73097e-18 0 0 0 
1.44663e-18 -3.43575e-20 0 0 -1.44663e-18 0 0 0 
1.45821e-18 -3.55438e-20 0 0 -1.45821e-18 0 0 0 
1.45009e-18 -1.81261e-21 0 0 -1.45009e-18 0 0 0 
1.50884e-18 -3.5835e-20 0 0 -1.50884e-18 0 0 0 
1.44677e-18 -3.43608e-20 0 0 -1.44677e-18 0 0 0 
1.59024e-18 -1.98781e-21 0 0 -1.59024e-18 0 0 0 
1.26106e-18 -1.57634e-21 0 0 -1.26106e-18 0 0 0 
1.32437e-18 -1.65547e-21 0 0 -1.32437e-18 0 0 0 
1.47355e-18 -3.49969e-20 0 0 -1.47355e-18 0 0 1.36077e-30 
1.47956e-18 -3.51395e-20 0 0 -1.47956e-18 0 0 0 
1.46082e-18 -3.46945e-20 0 0 -1.46082e-18 0 0 1.34251e-30 
1.67484e-18 -2.09355e-21 0 0 -1.67484e-18 0 0 0 
1.46369e-18 -3.47625e-20 0 0 -1.46369e-18 0 0 0 
1.53417e-18 -3.64365e-20 0 0 -1.53417e-18 0 0 0 
1.55294e-18 -3.68824e-20 0 0 -1.55294e-18 0 0 0 
1.52199e-18 -1.90249e-21 0 0 -1.52199e-18 0 0 0 
1.53302e-18 -3.64092e-20 0 0 -1.53302e-18 0 0 0 
1.49196e-18 -3.54342e-20 0 0 -1.49196e-18 0 0 0 
1.4957e-18 -3.5523e-20 0 0 -1.4957e-18 0 0 0 
1.63389e-18 -2.04238e-21 0 0 -1.63389e-18 0 0 0 
1.48813e-18 -3.53433e-20 0 0 -1.48813e-18 0 0 0 
1.40768e-18 -3.43121e-20 0 0 -1.40768e-18 0 0 1.29888e-30 
1.58467e-18 -1.98085e-21 0 0 -1.58467e-18 0 0 0 
1.41533e-18 -3.36142e-20 0 0 -1.41533e-18 0 0 0 
1.5034e-18 -3.57058e-20 0 0 -1.5034e-18 0 0 0 
1.60871e-18 -2.01089e-21 0 0 -1.60871e-18 0 0 0 
1.45422e-18 -3.4538e-20 0 0 -1.45422e-18 0 0 0 
1.43223e-18 -3.40156e-20 0 0 -1.43223e-18 0 0 0 
1.48069e-18 -1.85086e-21 0 0 -1.48069e-18 0 0 0 
1.45488e-18 -3.45534e-20 0 0 -1.45488e-18 0 0 0 
1.42954e-18 -3.39516e-20 0 0 -1.42954e-18 0 0 0 
1.41083e-18 -1.76353e-21 0 0 -1.41083e-18 0 0 0 
1.64739e-18 -2.05925e-21 0 0 -1.64739e-18 0 0 0 
1.50807e-18 -3.58167e-20 0 0 -1.50807e-18 0 0 0 
1.49348e-18 -3.54703e-20 0 0 -1.49348e-18 0 0 0 
1.52673e-18 -1.90842e-21 0 0 -1.52673e-18 0 0 0 
1.46033e-18 -3.46828e-20 0 0 -1.46033e-18 0 0 0 
1.45423e-18 -3.45379e-20 0 0 -1.45423e-18 0 0 0 
1.48616e-18 -3.52964e-20 0 0 -1.48616e-18 0 0 0 
1.50316e-18 -3.57e-20 0 0 -1.50316e-18 0 0 0 
1.49185e-18 -3.54315e-20 0 0 -1.49185e-18 0 0 0 
1.48457e-18 -3.61866e-20 0 0 -1.48457e-18 0 0 0 
1.46154e-18 -3.65388e-20 0 0 -1.46154e-18 0 0 0 
1.4924e-18 -3.731e-20 0 0 -1.4924e-18 0 0 0 
1.41844e-18 -3.5461e-20 0 0 -1.41844e-18 0 0 0 
1.41465e-18 -3.53664e-20 0 0 -1.41465e-18 0 0 0 
1.47046e-18 -1.26459e-18 0 0 -1.47046e-18 0 0 1.35631e-30 
1.47255e-18 -6.99463e-19 0 0 -1.47255e-18 0 0 1.35719e-30 
1.46605e-18 -6.96372e-19 0 0 -1.46605e-18 0 0 0 
1.46252e-18 -6.94696e-19 0 0 -1.46252e-18 0 0 0 
1.46618e-18 -7.14764e-19 0 0 -1.46618e-18 0 0 0 
1.47368e-18 -1.26736e-18 0 0 -1.47368e-18 0 0 1.35843e-30 
1.47995e-18 -7.02975e-19 0 0 -1.47995e-18 0 0 0 
1.47286e-18 -6.9961e-19 0 0 -1.47286e-18 0 0 0 
1.47227e-18 -6.9933e-19 0 0 -1.47227e-18 0 0 0 
1.47493e-18 -7.19027e-19 0 0 -1.47493e-18 0 0 0 
1.4768e-18 -3.692e-20 0 0 -1.4768e-18 0 0 1.35979e-30 
1.42141e-18 -3.55352e-20 0 0 -1.42141e-18 0 0 0 
1.51391e-18 -3.78478e-20 0 0 -1.51391e-18 0 0 1.39504e-30 
4.59276e-21 0 0 -2.68676e-20 0 0 -4.59276e-21 0 
2.49669e-20 3.12086e-23 0 0 2.49669e-20 0 0 0 
5.01846e-20 1.19189e-21 0 0 5.01846e-20 0 0 0 
1.00366e-20 1.25458e-23 0 0 1.00366e-20 0 0 0 
3.33462e-20 7.9197e-22 0 0 3.33462e-20 0 0 0 
7.59352e-20 1.80346e-21 0 0 7.59352e-20 0 0 0 
1.91494e-20 4.54799e-22 0 0 1.91494e-20 0 0 0 
6.21226e-20 1.47542e-21 0 0 6.21226e-20 0 0 0 
2.30223e-20 5.46778e-22 0 0 2.30223e-20 0 0 0 
6.76826e-20 1.60746e-21 0 0 6.76826e-20 0 0 0 
6.91644e-20 8.42941e-22 0 0 6.91644e-20 0 0 0 
2.02546e-20 4.81049e-22 0 0 2.02546e-20 0 0 1.85773e-32 
3.30991e-20 7.86105e-22 0 0 3.30991e-20 0 0 0 
2.75639e-20 6.54643e-22 0 0 2.75639e-20 0 0 0 
6.72753e-20 1.59779e-21 0 0 6.72753e-20 0 0 0 
3.35476e-20 7.96755e-22 0 0 3.35476e-20 0 0 0 
4.25312e-20 1.01011e-21 0 0 4.25312e-20 0 0 0 
5.83629e-20 1.38612e-21 0 0 5.83629e-20 0 0 0 
1.86931e-20 2.33663e-23 0 0 1.86931e-20 0 0 0 
4.98332e-20 1.18354e-21 0 0 4.98332e-20 0 0 0 
2.7936e-20 6.63479e-22 0 0 2.7936e-20 0 0 0 
3.04997e-20 3.81247e-23 0 0 3.04997e-20 0 0 0 
3.04749e-20 7.23779e-22 0 0 3.04749e-20 0 0 0 
4.1118e-20 9.76553e-22 0 0 4.1118e-20 0 0 0 
1.27667e-20 1.59583e-23 0 0 1.27667e-20 0 0 0 
1.77618e-20 4.21842e-22 0 0 1.77618e-20 0 0 0 
1.66469e-20 3.95365e-22 0 0 1.66469e-20 0 0 0 
4.82687e-20 6.03359e-23 0 0 4.82687e-20 0 0 0 
1.6558e-20 2.06976e-23 0 0 1.6558e-20 0 0 0 
2.6544e-20 6.30418e-22 0 0 2.6544e-20 0 0 0 
2.5406e-20 6.03391e-22 0 0 2.5406e-20 0 0 0 
4.554e-20 1.08158e-21 0 0 4.554e-20 0 0 0 
3.99618e-20 9.49092e-22 0 0 3.99618e-20 0 0 0 
0 0 0 0 0 0 0 0 
2.51617e-20 5.97589e-22 0 0 2.51617e-20 0 0 0 
2.52179e-20 5.98925e-22 0 0 2.52179e-20 0 0 0 
5.39497e-21 6.74372e-24 0 0 5.39497e-21 0 0 0 
4.54522e-20 5.68153e-23 0 0 4.54522e-20 0 0 0 
3.8985e-20 9.25894e-22 0 0 3.8985e-20 0 0 0 
3.68262e-20 8.74622e-22 0 0 3.68262e-20 0 0 0 
3.65611e-20 8.68325e-22 0 0 3.65611e-20 0 0 0 
1.56188e-20 1.95235e-23 0 0 1.56188e-20 0 0 0 
2.72457e-20 6.47085e-22 0 0 2.72457e-20 0 0 0 
3.30122e-20 7.84041e-22 0 0 3.30122e-20 0 0 0 
4.45959e-20 5.5745e-23 0 0 4.45959e-20 0 0 0 
6.84268e-20 1.62514e-21 0 0 6.84268e-20 0 0 0 
3.69757e-20 8.78172e-22 0 0 3.69757e-20 0 0 0 
5.1646e-20 1.22659e-21 0 0 5.1646e-20 0 0 0 
2.57424e-20 3.2178e-23 0 0 2.57424e-20 0 0 0 
1.07363e-20 2.61698e-22 0 0 1.07363e-20 0 0 0 
2.67032e-20 3.33792e-23 0 0 2.67032e-20 0 0 0 
3.74381e-20 9.12553e-22 0 0 3.74381e-20 0 0 3.43166e-32 
5.4086e-20 1.28455e-21 0 0 5.4086e-20 0 0 0 
5.36107e-20 1.30676e-21 0 0 5.36107e-20 0 0 0 
5.77429e-20 1.40748e-21 0 0 5.77429e-20 0 0 5.3549e-32 
4.05814e-20 9.63812e-22 0 0 4.05814e-20 0 0 0 
0 0 0 0 0 0 0 0 
1.66732e-20 4.0641e-22 0 0 1.66732e-20 0 0 0 
2.31072e-20 2.88842e-23 0 0 2.31072e-20 0 0 0 
2.68111e-20 3.3514e-23 0 0 2.68111e-20 0 0 0 
5.18655e-20 6.48321e-23 0 0 5.18655e-20 0 0 0 
6.01909e-20 7.52388e-23 0 0 6.01909e-20 0 0 0 
3.05085e-21 3.81358e-24 0 0 3.05085e-21 0 0 0 
4.92438e-21 6.15552e-24 0 0 4.92438e-21 0 0 0 
2.44934e-20 5.97028e-22 0 0 2.44934e-20 0 0 0 
4.65626e-20 1.10587e-21 0 0 4.65626e-20 0 0 0 
5.54353e-20 6.92943e-23 0 0 5.54353e-20 0 0 0 
4.29651e-20 1.04728e-21 0 0 4.29651e-20 0 0 0 
4.65e-20 1.10438e-21 0 0 4.65e-20 0 0 0 
2.95906e-20 3.69883e-23 0 0 2.95906e-20 0 0 0 
3.93732e-20 9.59722e-22 0 0 3.93732e-20 0 0 0 
1.97557e-20 4.69199e-22 0 0 1.97557e-20 0 0 1.78033e-32 
2.12517e-20 5.18013e-22 0 0 2.12517e-20 0 0 0 
1.61589e-20 3.83775e-22 0 0 1.61589e-20 0 0 1.45043e-32 
3.34454e-20 7.94331e-22 0 0 3.34454e-20 0 0 0 
6.95979e-20 1.65296e-21 0 0 6.95979e-20 0 0 0 
5.66409e-20 1.34523e-21 0 0 5.66409e-20 0 0 0 
2.34373e-20 5.56637e-22 0 0 2.34373e-20 0 0 0 
1.73809e-20 4.12798e-22 0 0 1.73809e-20 0 0 1.58128e-32 
4.74589e-20 1.15681e-21 0 0 4.74589e-20 0 0 4.29182e-32 
2.19235e-20 5.34387e-22 0 0 2.19235e-20 0 0 0 
9.18183e-20 5.73866e-23 0 0 9.18183e-20 0 0 0 
4.08727e-20 4.98136e-22 0 0 4.08727e-20 0 0 0 
3.67421e-19 -3.8579e-19 -4.72494e-19 -4.72494e-19 -1.83711e-19 -2.24999e-19 -2.24999e-19 -1.23804e-31 
4.12117e-21 0 0 -6.09433e-19 0 0 -4.12117e-21 0 
2.79294e-21 0 5.65811e-19 -5.65811e-19 0 1.97491e-21 -1.97491e-21 -1.45374e-34 
3.67395e-19 -3.85762e-19 4.7246e-19 4.7246e-19 -1.83697e-19 2.24983e-19 2.24983e-19 -1.24597e-31 
4.11986e-21 0 0 6.0924e-19 0 0 4.11986e-21 0 
3.1681e-21 0 -2.88984e-19 2.88984e-19 0 -2.24019e-21 2.24019e-21 1.95465e-34 
5.25429e-21 0 -3.07376e-20 0 0 -5.25429e-21 0 0 
5.22508e-21 0 3.05667e-20 0 0 5.22508e-21 0 0 
5.01178e-21 0 0 -2.85671e-20 0 0 -5.01178e-21 0 
5.16339e-21 0 0 2.94313e-20 0 0 5.16339e-21 0 
5.01847e-21 0 0 -2.86053e-20 0 0 -5.01847e-21 0 
5.05634e-21 0 0 2.88211e-20 0 0 5.05634e-21 0 
5.30904e-21 0 0 3.02615e-20 0 0 5.30904e-21 0 
5.26417e-21 0 0 -3.00057e-20 0 0 -5.26417e-21 0 
4.83744e-21 0 0 -2.75734e-20 0 0 -4.83744e-21 0 
4.77711e-21 0 0 2.72295e-20 0 0 4.77711e-21 0 
5.03501e-21 0 0 -2.86996e-20 0 0 -5.03501e-21 0 
5.0305e-21 0 0 2.86738e-20 0 0 5.0305e-21 0 
5.28108e-21 0 -3.01022e-20 0 0 -5.28108e-21 0 0 
5.05472e-21 0 2.88119e-20 0 0 5.05472e-21 0 0 
5.56202e-21 0 0 -3.17035e-20 0 0 -5.56202e-21 0 
5.6432e-21 0 0 3.21662e-20 0 0 5.6432e-21 0 
5.58309e-21 0 -3.18236e-20 0 0 -5.58309e-21 0 0 
5.5436e-21 0 3.15985e-20 0 0 5.5436e-21 0 0 
5.40603e-21 0 -3.08144e-20 0 0 -5.40603e-21 0 0 
5.45233e-21 0 3.10783e-20 0 0 5.45233e-21 0 0 
5.77769e-21 0 3.37995e-20 0 0 5.77769e-21 0 0 
5.8142e-21 0 -3.4013e-20 0 0 -5.8142e-21 0 0 
5.50653e-21 0 3.22132e-20 0 0 5.50653e-21 0 0 
5.45657e-21 0 -3.19209e-20 0 0 -5.45657e-21 0 0 
5.15769e-21 0 -2.93988e-20 0 0 -5.15769e-21 0 0 
4.95522e-21 0 2.82448e-20 0 0 4.95522e-21 0 0 
4.62087e-21 0 2.70321e-20 0 0 4.62087e-21 0 0 
4.77396e-21 0 -1.39638e-20 0 0 -4.77396e-21 0 0 
4.66551e-21 0 0 1.36466e-20 0 0 4.66551e-21 0 
6.57263e-21 0 0 -3.7464e-20 0 0 -6.57263e-21 0 
6.24535e-21 0 0 3.55985e-20 0 0 6.24535e-21 0 
5.33817e-21 0 0 3.12283e-20 0 0 5.33817e-21 0 
5.24624e-21 0 0 -3.06905e-20 0 0 -5.24624e-21 0 
5.18562e-21 0 -2.9558e-20 0 0 -5.18562e-21 0 0 
5.12089e-21 0 2.91891e-20 0 0 5.12089e-21 0 0 
5.57427e-21 0 -3.17733e-20 0 0 -5.57427e-21 0 0 
5.45444e-21 0 3.10903e-20 0 0 5.45444e-21 0 0 
5.20167e-21 0 0 2.96495e-20 0 0 5.20167e-21 0 
5.35617e-21 0 0 -3.05302e-20 0 0 -5.35617e-21 0 
5.68128e-21 0 -3.23833e-20 0 0 -5.68128e-21 0 0 
5.52621e-21 0 3.14994e-20 0 0 5.52621e-21 0 0 
5.31376e-21 0 0 3.02884e-20 0 0 5.31376e-21 0 
5.46554e-21 0 0 -3.11536e-20 0 0 -5.46554e-21 0 
4.93095e-21 0 -2.81064e-20 0 0 -4.93095e-21 0 0 
4.85386e-21 0 2.7667e-20 0 0 4.85386e-21 0 0 
5.84766e-21 0 0 3.33317e-20 0 0 5.84766e-21 0 
6.15474e-21 0 0 -3.5082e-20 0 0 -6.15474e-21 0 
5.66223e-21 0 3.22747e-20 0 0 5.66223e-21 0 0 
5.64071e-21 0 -3.2152e-20 0 0 -5.64071e-21 0 0 
5.17295e-21 0 2.94858e-20 0 0 5.17295e-21 0 0 
5.06064e-21 0 -2.88456e-20 0 0 -5.06064e-21 0 0 
5.75707e-21 0 0 -3.28153e-20 0 0 -5.75707e-21 0 
5.64559e-21 0 0 3.21798e-20 0 0 5.64559e-21 0 
5.65203e-21 0 0 3.22166e-20 0 0 5.65203e-21 0 
5.46836e-21 0 0 -3.11696e-20 0 0 -5.46836e-21 0 
6.3888e-21 0 0 3.64162e-20 0 0 6.3888e-21 0 
5.70682e-21 0 0 -3.25289e-20 0 0 -5.70682e-21 0 
5.55714e-21 0 -3.16757e-20 0 0 -5.55714e-21 0 0 
5.42246e-21 0 3.0908e-20 0 0 5.42246e-21 0 0 
5.27833e-21 0 -3.00865e-20 0 0 -5.27833e-21 0 0 
5.19749e-21 0 2.96257e-20 0 0 5.19749e-21 0 0 
4.48676e-21 0 2.62475e-20 0 0 4.48676e-21 0 0 
4.61492e-21 0 0 -2.69973e-20 0 0 -4.61492e-21 0 
5.09325e-21 0 -2.97955e-20 0 0 -5.09325e-21 0 0 
5.14045e-21 0 3.00716e-20 0 0 5.14045e-21 0 0 
5.65318e-21 0 3.30711e-20 0 0 5.65318e-21 0 0 
5.66352e-21 0 -3.31316e-20 0 0 -5.66352e-21 0 0 
5.19457e-21 0 0 -3.03882e-20 0 0 -5.19457e-21 0 
5.26685e-21 0 0 3.08111e-20 0 0 5.26685e-21 0 
5.42933e-21 0 0 3.17616e-20 0 0 5.42933e-21 0 
5.35928e-21 0 0 -3.13518e-20 0 0 -5.35928e-21 0 
5.86577e-21 0 -3.34349e-20 0 0 -5.86577e-21 0 0 
6.17845e-21 0 3.52172e-20 0 0 6.17845e-21 0 0 
5.69611e-21 0 0 -3.33222e-20 0 0 -5.69611e-21 0 
5.80257e-21 0 0 3.39451e-20 0 0 5.80257e-21 0 
4.43681e-21 0 -1.29777e-20 0 0 -4.43681e-21 0 0 
5.54895e-21 0 -3.24613e-20 0 0 -5.54895e-21 0 0 
5.50206e-21 0 3.2187e-20 0 0 5.50206e-21 0 0 
5.03838e-21 0 -2.94745e-20 0 0 -5.03838e-21 0 0 
5.02312e-21 0 2.93853e-20 0 0 5.02312e-21 0 0 
5.16071e-21 0 -2.9416e-20 0 0 -5.16071e-21 0 0 
5.35382e-21 0 3.05168e-20 0 0 5.35382e-21 0 0 
5.34998e-21 0 0 -3.12974e-20 0 0 -5.34998e-21 0 
5.35298e-21 0 0 3.13149e-20 0 0 5.35298e-21 0 
5.95412e-21 0 3.39385e-20 0 0 5.95412e-21 0 0 
5.84007e-21 0 -3.32884e-20 0 0 -5.84007e-21 0 0 
5.06409e-21 0 0 2.88653e-20 0 0 5.06409e-21 0 
5.0075e-21 0 0 -2.85428e-20 0 0 -5.0075e-21 0 
4.52319e-21 0 0 2.64607e-20 0 0 4.52319e-21 0 
4.65873e-21 0 1.36268e-20 0 0 4.65873e-21 0 0 
5.4803e-21 0 -3.12377e-20 0 0 -5.4803e-21 0 0 
5.23384e-21 0 2.98329e-20 0 0 5.23384e-21 0 0 
5.24446e-21 0 2.98934e-20 0 0 5.24446e-21 0 0 
5.3212e-21 0 -3.03309e-20 0 0 -5.3212e-21 0 0 
4.92116e-21 0 2.80506e-20 0 0 4.92116e-21 0 0 
5.08895e-21 0 -2.9007e-20 0 0 -5.08895e-21 0 0 
4.97512e-21 0 0 -2.83582e-20 0 0 -4.97512e-21 0 
4.99761e-21 0 0 2.84864e-20 0 0 4.99761e-21 0 
5.87066e-21 0 3.34628e-20 0 0 5.87066e-21 0 0 
5.62962e-21 0 -3.20888e-20 0 0 -5.62962e-21 0 0 
5.036e-21 0 0 -2.87052e-20 0 0 -5.036e-21 0 
5.09772e-21 0 0 2.9057e-20 0 0 5.09772e-21 0 
4.97543e-21 0 2.83599e-20 0 0 4.97543e-21 0 0 
5.066e-21 0 -2.88762e-20 0 0 -5.066e-21 0 0 
5.24997e-21 0 -2.99248e-20 0 0 -5.24997e-21 0 0 
5.02437e-21 0 2.86389e-20 0 0 5.02437e-21 0 0 
5.10275e-21 0 0 -2.90857e-20 0 0 -5.10275e-21 0 
4.97897e-21 0 0 2.83802e-20 0 0 4.97897e-21 0 
5.22724e-21 0 0 -2.97953e-20 0 0 -5.22724e-21 0 
5.19442e-21 0 0 2.96082e-20 0 0 5.19442e-21 0 
4.8696e-21 0 0 2.77567e-20 0 0 4.8696e-21 0 
5.0502e-21 0 0 -2.87861e-20 0 0 -5.0502e-21 0 
4.8078e-21 0 -2.74045e-20 0 0 -4.8078e-21 0 0 
4.82952e-21 0 2.75282e-20 0 0 4.82952e-21 0 0 
4.7741e-21 0 0 2.72123e-20 0 0 4.7741e-21 0 
4.89712e-21 0 0 -2.79136e-20 0 0 -4.89712e-21 0 
5.0322e-21 0 0 -2.86836e-20 0 0 -5.0322e-21 0 
5.26035e-21 0 0 2.9984e-20 0 0 5.26035e-21 0 
5.23514e-21 0 2.98403e-20 0 0 5.23514e-21 0 0 
5.17424e-21 0 -2.94931e-20 0 0 -5.17424e-21 0 0 
4.90974e-21 0 -2.79855e-20 0 0 -4.90974e-21 0 0 
4.88589e-21 0 2.78496e-20 0 0 4.88589e-21 0 0 
5.06784e-21 0 0 2.88867e-20 0 0 5.06784e-21 0 
5.12836e-21 0 0 -2.92316e-20 0 0 -5.12836e-21 0 
5.24598e-21 0 2.99021e-20 0 0 5.24598e-21 0 0 
5.39431e-21 0 -3.07476e-20 0 0 -5.39431e-21 0 0 
5.03953e-21 0 0 2.87253e-20 0 0 5.03953e-21 0 
5.04031e-21 0 0 -2.87298e-20 0 0 -5.04031e-21 0 
6.25697e-21 -8.48046e-24 0 -4.45809e-21 -1.19024e-23 0 -6.25696e-21 -2.46347e-34 
1.31646e-20 -1.61389e-22 -5.42282e-23 -2.42535e-21 -8.73856e-22 -2.93624e-22 -1.31323e-20 6.80198e-34 
8.42316e-21 -6.0373e-23 -2.65584e-23 -1.55785e-21 -3.2614e-22 -1.43471e-22 -8.41562e-21 3.9961e-34 
1.53838e-20 -1.89449e-22 -1.26741e-22 -2.78394e-21 -1.04339e-21 -6.98024e-22 -1.53325e-20 -1.28008e-33 
6.65997e-21 -7.92617e-25 -2.38176e-27 -1.66499e-21 -3.17047e-24 -9.52702e-27 -6.65997e-21 -2.62627e-33 
7.45448e-21 -1.05611e-23 -5.53833e-23 -1.79054e-21 -4.39466e-23 -2.3046e-22 -7.45079e-21 1.47533e-34 
6.72196e-21 -1.18828e-23 -3.75991e-23 -1.08359e-21 -7.36655e-23 -2.33089e-22 -6.71751e-21 -5.12854e-34 
6.32852e-21 -2.06415e-23 -4.97797e-23 -1.14352e-21 -1.14108e-22 -2.75187e-22 -6.3215e-21 -1.93577e-34 
9.16994e-21 -6.47618e-23 -2.89131e-23 -1.69596e-21 -3.49856e-22 -1.56194e-22 -9.16193e-21 1.04279e-33 
7.74431e-21 -4.32938e-23 -7.32554e-23 -1.39277e-21 -2.40282e-22 -4.06569e-22 -7.7299e-21 -1.9896e-33 
9.44469e-21 -9.0267e-23 -6.90204e-23 -1.71638e-21 -4.95627e-22 -3.78969e-22 -9.42406e-21 5.71993e-34 
5.11321e-21 -7.96345e-24 -1.93688e-23 -1.6722e-21 -2.43485e-23 -5.92208e-23 -5.11281e-21 -2.66325e-34 
7.18659e-21 -2.08359e-23 -1.34e-23 -1.18467e-21 -1.26369e-22 -8.12707e-23 -7.18502e-21 4.1148e-34 
8.9691e-21 -1.23288e-23 -4.25881e-23 -1.07468e-21 -1.02807e-22 -3.55132e-22 -8.96147e-21 -2.14619e-33 
6.34694e-21 -1.10129e-23 -1.79119e-23 -1.03652e-21 -6.74218e-23 -1.09658e-22 -6.34563e-21 9.32533e-34 
6.85695e-21 -2.17485e-24 0 -1.28568e-22 -1.15975e-22 0 -6.85597e-21 5.6019e-34 
6.72434e-21 -2.1731e-23 3.52623e-23 -1.2303e-21 -1.18706e-22 1.92621e-22 -6.72053e-21 -1.33179e-33 
6.41982e-21 -2.35255e-23 0 -2.28706e-21 -6.60329e-23 0 -6.41948e-21 4.79153e-34 
7.25447e-21 -9.24659e-25 2.32796e-23 -1.7476e-21 -3.83802e-24 9.66274e-23 -7.25383e-21 1.03741e-33 
6.53525e-21 -9.25877e-24 4.85539e-23 -1.56975e-21 -3.85275e-23 2.02042e-22 -6.53202e-21 -7.12167e-34 
1.03788e-20 -9.9311e-23 8.55063e-23 -1.8782e-21 -5.47453e-22 4.71355e-22 -1.03536e-20 4.36733e-34 
7.78081e-21 -5.50225e-23 2.84309e-23 -1.43645e-21 -2.97763e-22 1.53858e-22 -7.77359e-21 -8.00636e-34 
9.53684e-21 -8.25196e-23 1.04541e-22 -1.7056e-21 -4.60006e-22 5.82766e-22 -9.5079e-21 1.74462e-33 
7.02493e-21 -3.51322e-23 4.43002e-23 -1.28132e-21 -1.92427e-22 2.42643e-22 -7.0181e-21 -3.83592e-34 
7.72471e-21 -1.50362e-23 4.3208e-23 -1.24523e-21 -9.32129e-23 2.67856e-22 -7.7195e-21 1.8316e-33 
6.81904e-21 -1.18122e-23 1.27147e-23 -1.12408e-21 -7.16478e-23 7.71219e-23 -6.81823e-21 -1.56644e-34 
7.443e-21 -6.95731e-23 0 -2.65157e-21 -1.95226e-22 0 -7.44044e-21 2.22434e-33 
6.21713e-21 -2.11014e-24 0 -4.4297e-21 -2.96159e-24 0 -6.21713e-21 7.05253e-34 
6.53791e-21 -1.07667e-23 3.84034e-23 -1.59019e-21 -4.42523e-23 1.57842e-22 -6.53586e-21 2.23082e-34 
1.21792e-20 -1.44918e-22 0 -2.22652e-21 -7.9104e-22 0 -1.21535e-20 -9.62873e-34 
7.04053e-21 -9.54247e-24 5.01638e-21 0 -1.33929e-23 7.04052e-21 0 -5.38768e-34 
1.38941e-20 -1.70333e-22 2.55975e-21 -5.72334e-23 -9.22282e-22 1.386e-20 -3.09895e-22 8.5321e-35 
7.88622e-21 -5.65245e-23 1.45854e-21 -2.48655e-23 -3.0535e-22 7.87916e-21 -1.34325e-22 -3.66506e-34 
1.63072e-20 -2.00821e-22 2.95104e-21 -1.34348e-22 -1.10602e-21 1.62528e-20 -7.39921e-22 -9.28116e-34 
5.54955e-21 -6.60463e-25 1.38739e-21 -1.98464e-27 -2.64185e-24 5.54955e-21 -7.93857e-27 8.43907e-34 
7.63736e-21 -1.08202e-23 1.83447e-21 -5.6742e-23 -4.50247e-23 7.63357e-21 -2.36114e-22 4.02529e-34 
5.7869e-21 -1.02299e-23 9.32856e-22 -3.23689e-23 -6.34182e-23 5.78307e-21 -2.00665e-22 -4.66724e-34 
7.95185e-21 -2.59363e-23 1.43685e-21 -6.25487e-23 -1.43379e-22 7.94303e-21 -3.45776e-22 -5.46855e-34 
8.02577e-21 -5.66812e-23 1.48435e-21 -2.53055e-23 -3.06203e-22 8.01876e-21 -1.36705e-22 1.20595e-33 
9.67732e-21 -5.41001e-23 1.74041e-21 -9.15402e-23 -3.00257e-22 9.65931e-21 -5.0805e-22 -2.54834e-33 
1.08376e-20 -1.0358e-22 1.96951e-21 -7.91999e-23 -5.68724e-22 1.0814e-20 -4.34861e-22 2.13896e-34 
5.58745e-21 -8.70204e-24 1.82729e-21 -2.11652e-23 -2.66068e-23 5.58701e-21 -6.47134e-23 3.61346e-35 
5.80066e-21 -1.68177e-23 9.56209e-22 -1.08158e-23 -1.01999e-22 5.79939e-21 -6.55977e-23 4.80503e-34 
7.25414e-21 -9.97141e-24 8.69189e-22 -3.44449e-23 -8.31493e-23 7.24797e-21 -2.87228e-22 -2.78128e-33 
5.52332e-21 -9.58383e-24 9.02015e-22 -1.55875e-23 -5.86727e-23 5.52218e-21 -9.54277e-23 1.21926e-33 
4.07952e-21 -1.29392e-24 7.64911e-23 0 -6.89991e-23 4.07894e-21 0 3.7346e-34 
6.67137e-21 -2.15598e-23 1.22061e-21 3.49846e-23 -1.17771e-22 6.66759e-21 1.91104e-22 -1.009e-33 
6.09769e-21 -2.2345e-23 2.1723e-21 0 -6.27195e-23 6.09737e-21 0 2.55548e-34 
6.38646e-21 -8.14022e-25 1.5385e-21 2.04941e-23 -3.3788e-24 6.3859e-21 8.50658e-23 4.74192e-34 
7.31468e-21 -1.0363e-23 1.75697e-21 5.43447e-23 -4.31225e-23 7.31106e-21 2.26139e-22 -1.59372e-33 
1.09315e-20 -1.046e-22 1.97822e-21 9.00599e-23 -5.76608e-22 1.0905e-20 4.96456e-22 8.13144e-34 
7.54191e-21 -5.33331e-23 1.39235e-21 2.75579e-23 -2.88621e-22 7.53491e-21 1.49134e-22 2.85434e-33 
1.06673e-20 -9.2301e-23 1.90777e-21 1.16933e-22 -5.14533e-22 1.06349e-20 6.51843e-22 9.3941e-34 
8.68699e-21 -4.34442e-23 1.58447e-21 5.47814e-23 -2.37955e-22 8.67855e-21 3.00051e-22 -1.01412e-33 
8.34037e-21 -1.62346e-23 1.34448e-21 4.66517e-23 -1.00642e-22 8.33474e-21 2.89205e-22 1.79361e-33 
6.7227e-21 -1.16453e-23 1.1082e-21 1.2535e-23 -7.06355e-23 6.7219e-21 7.60323e-23 -1.22129e-34 
7.58232e-21 -7.08753e-23 2.7012e-21 0 -1.9888e-22 7.57971e-21 0 2.05976e-33 
6.108e-21 -2.0731e-24 4.35195e-21 0 -2.90961e-24 6.108e-21 0 8.15832e-34 
6.36175e-21 -1.04766e-23 1.54734e-21 3.73686e-23 -4.306e-23 6.35975e-21 1.53589e-22 -2.59063e-34 
1.37184e-20 -1.63232e-22 2.5079e-21 0 -8.91009e-22 1.36894e-20 0 -1.43356e-33 
6.40162e-21 -8.67651e-24 0 4.56115e-21 -1.21775e-23 0 6.4016e-21 -4.44775e-34 
1.27734e-20 -1.56594e-22 5.26169e-23 2.35328e-21 -8.47891e-22 2.84899e-22 1.27421e-20 -5.33256e-34 
8.2461e-21 -5.9104e-23 2.60002e-23 1.5251e-21 -3.19285e-22 1.40455e-22 8.23872e-21 -1.67883e-34 
1.58086e-20 -1.94681e-22 1.30241e-22 2.86082e-21 -1.0722e-21 7.173e-22 1.57559e-20 -3.03747e-34 
6.07364e-21 -7.22837e-25 2.17207e-27 1.51841e-21 -2.89135e-24 8.68828e-27 6.07364e-21 8.35153e-34 
7.12698e-21 -1.00971e-23 5.29501e-23 1.71188e-21 -4.20159e-23 2.20335e-22 7.12344e-21 3.56994e-34 
5.96092e-21 -1.05375e-23 3.33423e-23 9.60908e-22 -6.53253e-23 2.06699e-22 5.95697e-21 -4.28735e-34 
6.36444e-21 -2.07587e-23 5.00623e-23 1.15001e-21 -1.14756e-22 2.76749e-22 6.35738e-21 -1.06467e-34 
9.09437e-21 -6.42281e-23 2.86748e-23 1.68199e-21 -3.46973e-22 1.54907e-22 9.08642e-21 9.81311e-34 
7.45751e-21 -4.16905e-23 7.05425e-23 1.34119e-21 -2.31383e-22 3.91512e-22 7.44363e-21 -1.66165e-33 
9.7979e-21 -9.36427e-23 7.16016e-23 1.78056e-21 -5.14162e-22 3.93141e-22 9.77649e-21 -2.884e-34 
6.24043e-21 -9.719e-24 2.36387e-23 2.04084e-21 -2.97162e-23 7.22761e-23 6.23994e-21 -2.91753e-34 
6.9799e-21 -2.02366e-23 1.30146e-23 1.1506e-21 -1.22735e-22 7.89333e-23 6.97838e-21 3.45113e-34 
9.35812e-21 -1.28635e-23 4.44353e-23 1.12129e-21 -1.07266e-22 3.70536e-22 9.35016e-21 -2.58418e-33 
6.61289e-21 -1.14744e-23 1.86625e-23 1.07995e-21 -7.0247e-23 1.14253e-22 6.61153e-21 2.05264e-33 
5.21331e-21 -1.65353e-24 0 9.77498e-23 -8.81756e-23 0 5.21257e-21 -5.13507e-34 
6.2863e-21 -2.03154e-23 -3.29653e-23 1.15016e-21 -1.10973e-22 -1.80073e-22 6.28275e-21 -1.01139e-33 
6.08302e-21 -2.22912e-23 0 2.16707e-21 -6.25686e-23 0 6.08269e-21 1.56032e-34 
7.31176e-21 -9.31961e-25 -2.34634e-23 1.7614e-21 -3.86833e-24 -9.73905e-23 7.31111e-21 1.07738e-33 
6.42975e-21 -9.1093e-24 -4.77701e-23 1.54441e-21 -3.79055e-23 -1.9878e-22 6.42656e-21 -1.3788e-33 
1.07515e-20 -1.02878e-22 -8.85774e-23 1.94565e-21 -5.67116e-22 -4.88284e-22 1.07255e-20 -9.65156e-35 
8.04756e-21 -5.69088e-23 -2.94056e-23 1.4857e-21 -3.07971e-22 -1.59133e-22 8.04009e-21 -9.40392e-34 
1.02635e-20 -8.88072e-23 -1.12507e-22 1.83556e-21 -4.95057e-22 -6.2717e-22 1.02324e-20 2.97683e-33 
7.46712e-21 -3.73436e-23 -4.70887e-23 1.36197e-21 -2.0454e-22 -2.57916e-22 7.45986e-21 -1.51519e-33 
7.32964e-21 -1.42672e-23 -4.09982e-23 1.18155e-21 -8.84456e-23 -2.54157e-22 7.32469e-21 1.42186e-33 
5.90686e-21 -1.02321e-23 -1.10138e-23 9.73716e-22 -6.20635e-23 -6.68053e-23 5.90616e-21 -2.44258e-34 
7.36489e-21 -6.88429e-23 0 2.62374e-21 -1.93177e-22 0 7.36236e-21 2.64686e-33 
6.52128e-21 -2.21337e-24 0 4.64641e-21 -3.10648e-24 0 6.52128e-21 5.44298e-34 
6.65371e-21 -1.09574e-23 -3.90836e-23 1.61835e-21 -4.50362e-23 -1.60638e-22 6.65162e-21 -1.33129e-34 
1.21696e-20 -1.44803e-22 0 2.22475e-21 -7.90412e-22 0 1.21439e-20 -8.60135e-34 
6.69819e-21 -9.07848e-24 -4.77246e-21 0 -1.27417e-23 -6.69818e-21 0 -2.27302e-34 
1.35519e-20 -1.66138e-22 -2.49671e-21 5.58238e-23 -8.99567e-22 -1.35187e-20 3.02263e-22 7.63149e-34 
7.3269e-21 -5.25156e-23 -1.3551e-21 2.31019e-23 -2.83694e-22 -7.32034e-21 1.24798e-22 -4.96556e-35 
1.70063e-20 -2.0943e-22 -3.07755e-21 1.40108e-22 -1.15343e-21 -1.69496e-20 7.71642e-22 -9.66687e-34 
5.43226e-21 -6.46504e-25 -1.35806e-21 1.9427e-27 -2.58602e-24 -5.43226e-21 7.77079e-27 8.9118e-34 
6.30322e-21 -8.93004e-24 -1.51401e-21 4.683e-23 -3.71595e-23 -6.30009e-21 1.94868e-22 4.91778e-34 
6.58513e-21 -1.1641e-23 -1.06153e-21 3.68338e-23 -7.2166e-23 -6.58078e-21 2.28344e-22 -7.35361e-34 
7.09136e-21 -2.31297e-23 -1.28136e-21 5.57802e-23 -1.27863e-22 -7.0835e-21 3.08359e-22 -5.80731e-35 
8.42457e-21 -5.94977e-23 -1.55811e-21 2.65629e-23 -3.21419e-22 -8.41721e-21 1.43498e-22 9.08008e-34 
9.92253e-21 -5.5471e-23 -1.78451e-21 9.38598e-23 -3.07865e-22 -9.90406e-21 5.20923e-22 -3.15324e-33 
1.01299e-20 -9.68156e-23 -1.84089e-21 7.40277e-23 -5.31583e-22 -1.01077e-20 4.06462e-22 -4.80666e-36 
5.4724e-21 -8.52286e-24 -1.78967e-21 2.07294e-23 -2.60589e-23 -5.47197e-21 6.33809e-23 -2.03424e-34 
6.00515e-21 -1.74106e-23 -9.89918e-22 1.11971e-23 -1.05595e-22 -6.00383e-21 6.79102e-23 6.37131e-34 
9.38232e-21 -1.28968e-23 -1.12419e-21 4.45502e-23 -1.07543e-22 -9.37434e-21 3.71494e-22 -2.48563e-33 
5.17299e-21 -8.97595e-24 -8.44802e-22 1.45989e-23 -5.49513e-23 -5.17193e-21 8.9375e-23 5.1986e-34 
2.40102e-21 -7.61543e-25 -4.50192e-23 0 -4.06097e-23 -2.40068e-21 0 7.46919e-34 
6.48856e-21 -2.0969e-23 -1.18716e-21 -3.40259e-23 -1.14544e-22 -6.48488e-21 -1.85867e-22 -1.12377e-33 
5.75932e-21 -2.11051e-23 -2.05176e-21 0 -5.92391e-23 -5.75901e-21 0 4.69325e-34 
7.77635e-21 -9.91178e-25 -1.87332e-21 -2.49543e-23 -4.11412e-24 -7.77566e-21 -1.03579e-22 1.01924e-33 
6.62736e-21 -9.38926e-24 -1.59187e-21 -4.92382e-23 -3.90705e-23 -6.62408e-21 -2.0489e-22 -1.30594e-33 
1.25828e-20 -1.20401e-22 -2.27706e-21 -1.03665e-22 -6.63712e-22 -1.25523e-20 -5.71453e-22 7.04564e-34 
7.5663e-21 -5.35055e-23 -1.39685e-21 -2.76471e-23 -2.89554e-22 -7.55928e-21 -1.49617e-22 1.98027e-33 
1.03942e-20 -8.99381e-23 -1.85894e-21 -1.13939e-22 -5.01361e-22 -1.03627e-20 -6.35156e-22 9.2233e-34 
9.12999e-21 -4.56597e-23 -1.66528e-21 -5.7575e-23 -2.50089e-22 -9.12112e-21 -3.15352e-22 -1.34257e-33 
7.05584e-21 -1.37342e-23 -1.13741e-21 -3.94667e-23 -8.51417e-23 -7.05108e-21 -2.44663e-22 1.74477e-33 
5.81056e-21 -1.00653e-23 -9.57842e-22 -1.08343e-23 -6.10517e-23 -5.80987e-21 -6.57162e-23 -5.602e-34 
7.17555e-21 -6.7073e-23 -2.55629e-21 0 -1.8821e-22 -7.17308e-21 0 2.01677e-33 
6.47857e-21 -2.19887e-24 -4.61598e-21 0 -3.08613e-24 -6.47857e-21 0 5.17882e-34 
5.99659e-21 -9.87522e-24 -1.45852e-21 -3.52237e-23 -4.05884e-23 -5.99471e-21 -1.44774e-22 7.01628e-35 
1.27389e-20 -1.51577e-22 -2.32883e-21 0 -8.27389e-22 -1.2712e-20 0 -1.05844e-33 
5.09427e-20 0 -4.25541e-20 -4.25541e-20 0 -3.6022e-20 -3.6022e-20 2.51921e-32 
0 0 0 0 0 0 0 0 
0 0 0 0 0 0 0 0 
0 0 0 0 0 0 0 0 
0 0 0 0 0 0 0 0 
0 0 0 0 0 0 0 0 
0 0 0 0 0 0 0 0 
0 0 0 0 0 0 0 0 
0 0 0 0 0 0 0 0 
0 0 0 0 0 0 0 0 
0 0 0 0 0 0 0 0 
0 0 0 0 0 0 0 0 
0 0 0 0 0 0 0 0 
0 0 0 0 0 0 0 0 
0 0 0 0 0 0 0 0 
0 0 0 0 0 0 0 0 
0 0 0 0 0 0 0 0 
0 0 0 0 0 0 0 0 
0 0 0 0 0 0 0 0 
0 0 0 0 0 0 0 0 
0 0 0 0 0 0 0 0 
0 0 0 0 0 0 0 0 
0 0 0 0 0 0 0 0 
0 0 0 0 0 0 0 0 
0 0 0 0 0 0 0 0 
0 0 0 0 0 0 0 0 
0 0 0 0 0 0 0 0 
0 0 0 0 0 0 0 0 
0 0 0 0 0 0 0 0 
0 0 0 0 0 0 0 0 
0 0 0 0 0 0 0 0 
0 0 0 0 0 0 0 0 
0 0 0 0 0 0 0 0 
0 0 0 0 0 0 0 0 
0 0 0 0 0 0 0 0 
0 0 0 0 0 0 0 0 
0 0 0 0 0 0 0 0 
0 0 0 0 0 0 0 0 
0 0 0 0 0 0 0 0 
0 0 0 0 0 0 0 0 
0 0 0 0 0 0 0 0 
0 0 0 0 0 0 0 0 
0 0 0 0 0 0 0 0 
0 0 0 0 0 0 0 0 
0 0 0 0 0 0 0 0 
0 0 0 0 0 0 0 0 
0 0 0 0 0 0 0 0 
5.17581e-20 0 4.32352e-20 4.32352e-20 0 3.65985e-20 3.65985e-20 2.62322e-32 
5.55112e-20 -2.27156e-21 -3.44243e-22 -1.28193e-20 -9.68222e-21 -1.46729e-21 -5.46406e-20 -2.83566e-32 
6.06946e-20 -3.68643e-21 -1.34613e-21 -2.04426e-20 -1.07488e-20 -3.92504e-21 -5.96062e-20 -1.78538e-32 
4.71076e-20 -1.72388e-21 -3.03162e-22 -9.64123e-21 -8.28751e-21 -1.45744e-21 -4.635e-20 -1.68974e-33 
9.70569e-20 -2.91528e-21 -2.32619e-21 -1.15253e-20 -2.33576e-20 -1.86377e-20 -9.23423e-20 -8.35719e-33 
1.07216e-19 -1.77738e-21 -1.05098e-21 -7.14739e-21 -2.56146e-20 -1.51461e-20 -1.03004e-19 -5.53215e-33 
1.09796e-19 -1.93067e-21 -7.64419e-22 -7.93599e-21 -2.58412e-20 -1.02314e-20 -1.0622e-19 1.12543e-32 
6.3641e-20 -1.04223e-21 -3.81311e-22 -4.70018e-21 -1.37343e-20 -5.02482e-21 -6.19378e-20 6.62172e-33 
4.74244e-20 -1.4893e-21 -4.16882e-22 -8.18079e-21 -8.4833e-21 -2.37462e-21 -4.6599e-20 -4.48788e-35 
5.02745e-20 -1.75119e-21 -4.68806e-22 -9.43208e-21 -9.16638e-21 -2.4539e-21 -4.93709e-20 -6.40602e-33 
5.26786e-20 -1.6932e-21 -7.4684e-22 -9.00102e-21 -9.70646e-21 -4.28135e-21 -5.15993e-20 1.78155e-33 
5.67055e-20 -1.8907e-21 -9.54709e-22 -9.65246e-21 -1.08492e-20 -5.47831e-21 -5.53877e-20 -3.79263e-34 
1.58629e-19 -3.67336e-21 -3.23819e-21 -1.82538e-20 -3.0832e-20 -2.71795e-20 -1.53212e-19 4.86239e-32 
5.52874e-20 -2.07504e-21 -1.19939e-21 -1.03707e-20 -1.07782e-20 -6.22989e-21 -5.38675e-20 -2.97837e-33 
5.71382e-20 -1.24451e-21 -4.34424e-22 -6.128e-21 -1.13445e-20 -3.96005e-21 -5.58605e-20 1.30393e-32 
5.95562e-20 -1.64784e-21 -8.88998e-22 -7.76463e-21 -1.22871e-20 -6.62878e-21 -5.78967e-20 -2.57839e-34 
8.58683e-20 -1.44313e-21 -6.84216e-22 -5.89286e-21 -2.02964e-20 -9.62294e-21 -8.28783e-20 -2.08444e-32 
6.58348e-20 -1.02467e-21 -4.50544e-22 -4.59787e-21 -1.42554e-20 -6.26806e-21 -6.39665e-20 -1.7343e-32 