ITEM: TIMESTEP
175
ITEM: NUMBER OF SURFS
6916
ITEM: BOX BOUNDS oo rr rr
-20 20
-20 20
-20 20
ITEM: SURFS f_save[1] f_save[2] f_save[3] f_save[4] f_save[5] f_save[6] f_save[7] f_save[8] 
2.1965e-18 -1.64806e-19 0 0 -2.1965e-18 0 0 0 
1.54922e-19 0 0 -4.64925e-19 0 0 -1.54922e-19 0 
0 0 0 0 0 0 0 0 
1.43451e-18 -3.49662e-20 0 0 -1.43451e-18 0 0 1.32592e-30 
1.27812e-18 -1.59765e-21 0 0 -1.27812e-18 0 0 0 
1.22504e-18 -1.53131e-21 0 0 -1.22504e-18 0 0 0 
1.38823e-18 -1.73528e-21 0 0 -1.38823e-18 0 0 0 
1.38954e-18 -3.387e-20 0 0 -1.38954e-18 0 0 1.28141e-30 
1.377e-18 -3.27038e-20 0 0 -1.377e-18 0 0 0 
1.45375e-18 -3.45265e-20 0 0 -1.45375e-18 0 0 0 
1.52389e-18 -3.61925e-20 0 0 -1.52389e-18 0 0 0 
1.47507e-18 -3.5033e-20 0 0 -1.47507e-18 0 0 0 
1.47797e-18 -3.60255e-20 0 0 -1.47797e-18 0 0 0 
1.4808e-18 -3.51689e-20 0 0 -1.4808e-18 0 0 0 
1.4387e-18 -3.4169e-20 0 0 -1.4387e-18 0 0 0 
1.4123e-18 -3.44249e-20 0 0 -1.4123e-18 0 0 0 
1.40782e-18 -3.43157e-20 0 0 -1.40782e-18 0 0 1.29767e-30 
1.41456e-18 -3.35959e-20 0 0 -1.41456e-18 0 0 1.31163e-30 
1.39434e-18 -3.31155e-20 0 0 -1.39434e-18 0 0 0 
1.37215e-18 -3.34461e-20 0 0 -1.37215e-18 0 0 1.26626e-30 
1.40283e-18 -3.33172e-20 0 0 -1.40283e-18 0 0 0 
1.45909e-18 -3.46534e-20 0 0 -1.45909e-18 0 0 0 
1.43935e-18 -3.50843e-20 0 0 -1.43935e-18 0 0 0 
1.47579e-18 -3.505e-20 0 0 -1.47579e-18 0 0 0 
1.48275e-18 -3.52152e-20 0 0 -1.48275e-18 0 0 0 
1.44514e-18 -3.43221e-20 0 0 -1.44514e-18 0 0 0 
1.52245e-18 -1.90307e-21 0 0 -1.52245e-18 0 0 0 
1.4244e-18 -3.38295e-20 0 0 -1.4244e-18 0 0 0 
1.40683e-18 -3.34122e-20 0 0 -1.40683e-18 0 0 0 
1.52637e-18 -1.90797e-21 0 0 -1.52637e-18 0 0 0 
1.34009e-18 -3.18272e-20 0 0 -1.34009e-18 0 0 0 
1.41232e-18 -3.35426e-20 0 0 -1.41232e-18 0 0 0 
1.63055e-18 -2.0382e-21 0 0 -1.63055e-18 0 0 0 
1.4662e-18 -3.57385e-20 0 0 -1.4662e-18 0 0 1.34948e-30 
1.41226e-18 -3.35413e-20 0 0 -1.41226e-18 0 0 0 
1.49935e-18 -1.87419e-21 0 0 -1.49935e-18 0 0 0 
1.43427e-18 -3.49602e-20 0 0 -1.43427e-18 0 0 1.31991e-30 
1.41088e-18 -3.35085e-20 0 0 -1.41088e-18 0 0 0 
1.50645e-18 -1.88307e-21 0 0 -1.50645e-18 0 0 0 
1.37129e-18 -3.25682e-20 0 0 -1.37129e-18 0 0 0 
1.40142e-18 -3.41596e-20 0 0 -1.40142e-18 0 0 0 
1.79278e-18 -2.24098e-21 0 0 -1.79278e-18 0 0 0 
1.38183e-18 -3.28185e-20 0 0 -1.38183e-18 0 0 0 
1.41389e-18 -3.44635e-20 0 0 -1.41389e-18 0 0 0 
1.48569e-18 -1.85712e-21 0 0 -1.48569e-18 0 0 0 
1.46742e-18 -3.48513e-20 0 0 -1.46742e-18 0 0 0 
1.3931e-18 -3.30861e-20 0 0 -1.3931e-18 0 0 0 
1.66589e-18 -2.08237e-21 0 0 -1.66589e-18 0 0 0 
1.33062e-18 -1.66329e-21 0 0 -1.33062e-18 0 0 0 
1.41829e-18 -1.77287e-21 0 0 -1.41829e-18 0 0 0 
1.44519e-18 -3.43234e-20 0 0 -1.44519e-18 0 0 1.33346e-30 
1.43111e-18 -3.3989e-20 0 0 -1.43111e-18 0 0 0 
1.39756e-18 -3.31922e-20 0 0 -1.39756e-18 0 0 1.28898e-30 
1.45934e-18 -1.82417e-21 0 0 -1.45934e-18 0 0 0 
1.40534e-18 -3.33768e-20 0 0 -1.40534e-18 0 0 0 
1.51056e-18 -3.58758e-20 0 0 -1.51056e-18 0 0 0 
1.55475e-18 -3.69254e-20 0 0 -1.55475e-18 0 0 0 
1.5752e-18 -1.96901e-21 0 0 -1.5752e-18 0 0 0 
1.48832e-18 -3.53476e-20 0 0 -1.48832e-18 0 0 0 
1.49408e-18 -3.54845e-20 0 0 -1.49408e-18 0 0 0 
1.40686e-18 -3.34128e-20 0 0 -1.40686e-18 0 0 0 
1.83191e-18 -2.28991e-21 0 0 -1.83191e-18 0 0 0 
1.38977e-18 -3.30072e-20 0 0 -1.38977e-18 0 0 0 
1.32703e-18 -3.23462e-20 0 0 -1.32703e-18 0 0 1.22904e-30 
1.58073e-18 -1.97593e-21 0 0 -1.58073e-18 0 0 0 
1.34335e-18 -3.19046e-20 0 0 -1.34335e-18 0 0 0 
1.44494e-18 -3.43173e-20 0 0 -1.44494e-18 0 0 0 
1.5163e-18 -1.89538e-21 0 0 -1.5163e-18 0 0 0 
1.37532e-18 -3.2664e-20 0 0 -1.37532e-18 0 0 0 
1.40708e-18 -3.34183e-20 0 0 -1.40708e-18 0 0 0 
1.60714e-18 -2.00892e-21 0 0 -1.60714e-18 0 0 0 
1.44503e-18 -3.43194e-20 0 0 -1.44503e-18 0 0 0 
1.3549e-18 -3.21788e-20 0 0 -1.3549e-18 0 0 0 
1.4692e-18 -1.8365e-21 0 0 -1.4692e-18 0 0 0 
1.49246e-18 -1.86558e-21 0 0 -1.49246e-18 0 0 0 
1.4455e-18 -3.43305e-20 0 0 -1.4455e-18 0 0 0 
1.46847e-18 -3.48763e-20 0 0 -1.46847e-18 0 0 0 
1.43511e-18 -1.79389e-21 0 0 -1.43511e-18 0 0 0 
1.3863e-18 -3.29246e-20 0 0 -1.3863e-18 0 0 0 
1.37864e-18 -3.27428e-20 0 0 -1.37864e-18 0 0 0 
1.4957e-18 -3.5523e-20 0 0 -1.4957e-18 0 0 0 
1.44198e-18 -3.4247e-20 0 0 -1.44198e-18 0 0 0 
1.47365e-18 -3.49993e-20 0 0 -1.47365e-18 0 0 0 
1.44248e-18 -3.51607e-20 0 0 -1.44248e-18 0 0 0 
1.43008e-18 -3.5752e-20 0 0 -1.43008e-18 0 0 0 
1.42824e-18 -3.5706e-20 0 0 -1.42824e-18 0 0 0 
1.35711e-18 -3.39277e-20 0 0 -1.35711e-18 0 0 0 
1.37799e-18 -3.44499e-20 0 0 -1.37799e-18 0 0 0 
1.4231e-18 -1.22387e-18 0 0 -1.4231e-18 0 0 1.31336e-30 
1.42728e-18 -6.77956e-19 0 0 -1.42728e-18 0 0 1.31498e-30 
1.42199e-18 -6.75448e-19 0 0 -1.42199e-18 0 0 0 
1.41626e-18 -6.72723e-19 0 0 -1.41626e-18 0 0 0 
1.41316e-18 -6.88914e-19 0 0 -1.41316e-18 0 0 0 
1.43028e-18 -1.23004e-18 0 0 -1.43028e-18 0 0 1.31906e-30 
1.42943e-18 -6.78981e-19 0 0 -1.42943e-18 0 0 0 
1.41781e-18 -6.7346e-19 0 0 -1.41781e-18 0 0 0 
1.43056e-18 -6.79516e-19 0 0 -1.43056e-18 0 0 0 
1.42457e-18 -6.94478e-19 0 0 -1.42457e-18 0 0 0 
1.44582e-18 -3.61456e-20 0 0 -1.44582e-18 0 0 1.33046e-30 
1.3562e-18 -3.39051e-20 0 0 -1.3562e-18 0 0 0 
1.51087e-18 -3.77718e-20 0 0 -1.51087e-18 0 0 1.38961e-30 
3.489e-21 0 0 -2.04107e-20 0 0 -3.489e-21 0 
1.92297e-20 2.40372e-23 0 0 1.92297e-20 0 0 0 
2.04284e-20 4.85176e-22 0 0 2.04284e-20 0 0 0 
0 0 0 0 0 0 0 0 
2.0876e-20 4.95804e-22 0 0 2.0876e-20 0 0 0 
2.39066e-20 5.67782e-22 0 0 2.39066e-20 0 0 0 
1.1494e-20 2.72982e-22 0 0 1.1494e-20 0 0 0 
3.76157e-20 8.93376e-22 0 0 3.76157e-20 0 0 0 
7.04133e-21 1.67231e-22 0 0 7.04133e-21 0 0 0 
3.45113e-20 8.19644e-22 0 0 3.45113e-20 0 0 0 
4.50275e-20 5.48773e-22 0 0 4.50275e-20 0 0 0 
8.33573e-21 1.97974e-22 0 0 8.33573e-21 0 0 7.41408e-33 
1.45943e-20 3.46615e-22 0 0 1.45943e-20 0 0 0 
1.76644e-20 4.19529e-22 0 0 1.76644e-20 0 0 0 
5.00208e-20 1.18799e-21 0 0 5.00208e-20 0 0 0 
1.48746e-20 3.5327e-22 0 0 1.48746e-20 0 0 0 
2.30264e-20 5.46877e-22 0 0 2.30264e-20 0 0 0 
3.00117e-20 7.12778e-22 0 0 3.00117e-20 0 0 0 
2.30073e-20 2.87592e-23 0 0 2.30073e-20 0 0 0 
2.52291e-20 5.99193e-22 0 0 2.52291e-20 0 0 0 
1.32733e-20 3.1524e-22 0 0 1.32733e-20 0 0 0 
2.86832e-20 3.5854e-23 0 0 2.86832e-20 0 0 0 
1.38449e-20 3.28815e-22 0 0 1.38449e-20 0 0 0 
2.32704e-20 5.52672e-22 0 0 2.32704e-20 0 0 0 
2.00619e-20 2.50774e-23 0 0 2.00619e-20 0 0 0 
8.42817e-21 2.00169e-22 0 0 8.42817e-21 0 0 0 
1.02031e-20 2.42324e-22 0 0 1.02031e-20 0 0 0 
2.89661e-20 3.62077e-23 0 0 2.89661e-20 0 0 0 
7.60691e-21 9.50867e-24 0 0 7.60691e-21 0 0 0 
1.51923e-20 3.60817e-22 0 0 1.51923e-20 0 0 0 
1.01415e-20 2.4086e-22 0 0 1.01415e-20 0 0 0 
1.73702e-20 4.12544e-22 0 0 1.73702e-20 0 0 0 
1.84047e-20 4.37111e-22 0 0 1.84047e-20 0 0 0 
0 0 0 0 0 0 0 0 
1.20089e-20 2.85211e-22 0 0 1.20089e-20 0 0 0 
1.17752e-20 2.7966e-22 0 0 1.17752e-20 0 0 0 
0 0 0 0 0 0 0 0 
4.70944e-20 5.88681e-23 0 0 4.70944e-20 0 0 0 
1.73921e-20 4.13063e-22 0 0 1.73921e-20 0 0 0 
1.4619e-20 3.47202e-22 0 0 1.4619e-20 0 0 0 
1.60304e-20 3.80723e-22 0 0 1.60304e-20 0 0 0 
0 0 0 0 0 0 0 0 
1.32509e-20 3.14709e-22 0 0 1.32509e-20 0 0 0 
1.25546e-20 2.98173e-22 0 0 1.25546e-20 0 0 0 
5.18492e-20 6.48115e-23 0 0 5.18492e-20 0 0 0 
3.32984e-20 7.90837e-22 0 0 3.32984e-20 0 0 0 
2.25213e-20 5.3488e-22 0 0 2.25213e-20 0 0 0 
2.46848e-20 5.86264e-22 0 0 2.46848e-20 0 0 0 
0 0 0 0 0 0 0 0 
3.46563e-21 8.4475e-23 0 0 3.46563e-21 0 0 0 
2.72791e-20 3.4099e-23 0 0 2.72791e-20 0 0 0 
2.42617e-20 5.91378e-22 0 0 2.42617e-20 0 0 2.23493e-32 
3.2803e-20 7.79074e-22 0 0 3.2803e-20 0 0 0 
2.5568e-20 6.2322e-22 0 0 2.5568e-20 0 0 0 
3.40803e-20 8.30707e-22 0 0 3.40803e-20 0 0 3.26774e-32 
2.003e-20 4.75715e-22 0 0 2.003e-20 0 0 0 
0 0 0 0 0 0 0 0 
6.53243e-21 1.59229e-22 0 0 6.53243e-21 0 0 0 
0 0 0 0 0 0 0 0 
0 0 0 0 0 0 0 0 
0 0 0 0 0 0 0 0 
2.44136e-20 3.0517e-23 0 0 2.44136e-20 0 0 0 
0 0 0 0 0 0 0 0 
7.7383e-21 9.67295e-24 0 0 7.7383e-21 0 0 0 
1.85492e-20 4.52138e-22 0 0 1.85492e-20 0 0 0 
2.31274e-20 5.49279e-22 0 0 2.31274e-20 0 0 0 
4.32527e-20 5.40661e-23 0 0 4.32527e-20 0 0 0 
2.23762e-20 5.45419e-22 0 0 2.23762e-20 0 0 0 
2.14012e-20 5.0828e-22 0 0 2.14012e-20 0 0 0 
4.64995e-20 5.81245e-23 0 0 4.64995e-20 0 0 0 
2.35324e-20 5.73603e-22 0 0 2.35324e-20 0 0 0 
7.28878e-21 1.73109e-22 0 0 7.28878e-21 0 0 6.77693e-33 
6.60232e-21 1.60932e-22 0 0 6.60232e-21 0 0 0 
1.02408e-20 2.43221e-22 0 0 1.02408e-20 0 0 9.6441e-33 
1.45154e-20 3.44742e-22 0 0 1.45154e-20 0 0 0 
3.42019e-20 8.12299e-22 0 0 3.42019e-20 0 0 0 
3.61901e-20 8.59519e-22 0 0 3.61901e-20 0 0 0 
7.77827e-21 1.84735e-22 0 0 7.77827e-21 0 0 0 
8.55133e-21 2.03095e-22 0 0 8.55133e-21 0 0 7.29823e-33 
2.33025e-20 5.67997e-22 0 0 2.33025e-20 0 0 2.11641e-32 
8.62654e-21 2.10273e-22 0 0 8.62654e-21 0 0 0 
9.94187e-20 6.21369e-23 0 0 9.94187e-20 0 0 0 
1.39419e-20 1.69916e-22 0 0 1.39419e-20 0 0 0 
3.35139e-19 -3.51894e-19 -4.3098e-19 -4.3098e-19 -1.6757e-19 -2.0523e-19 -2.0523e-19 -1.1233e-31 
3.27675e-21 0 0 -4.84561e-19 0 0 -3.27675e-21 0 
2.22636e-21 0 4.51029e-19 -4.51029e-19 0 1.57427e-21 -1.57427e-21 -1.14654e-34 
3.34933e-19 -3.51678e-19 4.30715e-19 4.30715e-19 -1.67467e-19 2.05104e-19 2.05104e-19 -1.12965e-31 
3.29185e-21 0 0 4.86795e-19 0 0 3.29185e-21 0 
2.83041e-21 0 -2.58181e-19 2.58181e-19 0 -2.0014e-21 2.0014e-21 1.82598e-34 
3.68073e-21 0 -2.15323e-20 0 0 -3.68073e-21 0 0 
3.61863e-21 0 2.1169e-20 0 0 3.61863e-21 0 0 
3.3736e-21 0 0 -1.92295e-20 0 0 -3.3736e-21 0 
3.45312e-21 0 0 1.96828e-20 0 0 3.45312e-21 0 
3.47579e-21 0 0 -1.9812e-20 0 0 -3.47579e-21 0 
3.49876e-21 0 0 1.9943e-20 0 0 3.49876e-21 0 
3.49364e-21 0 0 1.99137e-20 0 0 3.49364e-21 0 
3.43587e-21 0 0 -1.95844e-20 0 0 -3.43587e-21 0 
3.33331e-21 0 0 -1.89998e-20 0 0 -3.33331e-21 0 
3.31937e-21 0 0 1.89204e-20 0 0 3.31937e-21 0 
3.4491e-21 0 0 -1.96599e-20 0 0 -3.4491e-21 0 
3.45672e-21 0 0 1.97033e-20 0 0 3.45672e-21 0 
3.68983e-21 0 -2.1032e-20 0 0 -3.68983e-21 0 0 
3.4985e-21 0 1.99415e-20 0 0 3.4985e-21 0 0 
3.67817e-21 0 0 -2.09656e-20 0 0 -3.67817e-21 0 
3.81798e-21 0 0 2.17625e-20 0 0 3.81798e-21 0 
3.69078e-21 0 -2.10375e-20 0 0 -3.69078e-21 0 0 
3.71429e-21 0 2.11714e-20 0 0 3.71429e-21 0 0 
3.55099e-21 0 -2.02406e-20 0 0 -3.55099e-21 0 0 
3.64294e-21 0 2.07648e-20 0 0 3.64294e-21 0 0 
3.61753e-21 0 2.11625e-20 0 0 3.61753e-21 0 0 
3.60331e-21 0 -2.10794e-20 0 0 -3.60331e-21 0 0 
3.44732e-21 0 2.01668e-20 0 0 3.44732e-21 0 0 
3.46472e-21 0 -2.02686e-20 0 0 -3.46472e-21 0 0 
3.54578e-21 0 -2.02109e-20 0 0 -3.54578e-21 0 0 
3.45787e-21 0 1.97098e-20 0 0 3.45787e-21 0 0 
3.4178e-21 0 1.99941e-20 0 0 3.4178e-21 0 0 
3.44222e-21 0 -1.00685e-20 0 0 -3.44222e-21 0 0 
3.41303e-21 0 0 9.98312e-21 0 0 3.41303e-21 0 
4.11215e-21 0 0 -2.34393e-20 0 0 -4.11215e-21 0 
3.93383e-21 0 0 2.24228e-20 0 0 3.93383e-21 0 
3.60195e-21 0 0 2.10714e-20 0 0 3.60195e-21 0 
3.5375e-21 0 0 -2.06943e-20 0 0 -3.5375e-21 0 
3.60623e-21 0 -2.05555e-20 0 0 -3.60623e-21 0 0 
3.57848e-21 0 2.03974e-20 0 0 3.57848e-21 0 0 
3.83166e-21 0 -2.18405e-20 0 0 -3.83166e-21 0 0 
3.72711e-21 0 2.12445e-20 0 0 3.72711e-21 0 0 
3.65283e-21 0 0 2.08212e-20 0 0 3.65283e-21 0 
3.66437e-21 0 0 -2.08869e-20 0 0 -3.66437e-21 0 
3.8394e-21 0 -2.18846e-20 0 0 -3.8394e-21 0 0 
3.72458e-21 0 2.12301e-20 0 0 3.72458e-21 0 0 
3.65944e-21 0 0 2.08588e-20 0 0 3.65944e-21 0 
3.6542e-21 0 0 -2.08289e-20 0 0 -3.6542e-21 0 
3.55849e-21 0 -2.02834e-20 0 0 -3.55849e-21 0 0 
3.51882e-21 0 2.00573e-20 0 0 3.51882e-21 0 0 
3.76689e-21 0 0 2.14713e-20 0 0 3.76689e-21 0 
3.84881e-21 0 0 -2.19382e-20 0 0 -3.84881e-21 0 
3.75644e-21 0 2.14117e-20 0 0 3.75644e-21 0 0 
3.70705e-21 0 -2.11302e-20 0 0 -3.70705e-21 0 0 
3.49312e-21 0 1.99108e-20 0 0 3.49312e-21 0 0 
3.45673e-21 0 -1.97033e-20 0 0 -3.45673e-21 0 0 
3.70384e-21 0 0 -2.11119e-20 0 0 -3.70384e-21 0 
3.77987e-21 0 0 2.15452e-20 0 0 3.77987e-21 0 
3.74895e-21 0 0 2.1369e-20 0 0 3.74895e-21 0 
3.61838e-21 0 0 -2.06248e-20 0 0 -3.61838e-21 0 
4.04484e-21 0 0 2.30556e-20 0 0 4.04484e-21 0 
3.65979e-21 0 0 -2.08608e-20 0 0 -3.65979e-21 0 
3.7952e-21 0 -2.16326e-20 0 0 -3.7952e-21 0 0 
3.68033e-21 0 2.09779e-20 0 0 3.68033e-21 0 0 
3.67204e-21 0 -2.09306e-20 0 0 -3.67204e-21 0 0 
3.60147e-21 0 2.05284e-20 0 0 3.60147e-21 0 0 
3.45099e-21 0 2.01883e-20 0 0 3.45099e-21 0 0 
3.31677e-21 0 0 -1.94031e-20 0 0 -3.31677e-21 0 
3.51867e-21 0 -2.05842e-20 0 0 -3.51867e-21 0 0 
3.52407e-21 0 2.06158e-20 0 0 3.52407e-21 0 0 
3.67991e-21 0 2.15275e-20 0 0 3.67991e-21 0 0 
3.67062e-21 0 -2.14731e-20 0 0 -3.67062e-21 0 0 
3.55031e-21 0 0 -2.07693e-20 0 0 -3.55031e-21 0 
3.58536e-21 0 0 2.09744e-20 0 0 3.58536e-21 0 
3.4214e-21 0 0 2.00152e-20 0 0 3.4214e-21 0 
3.34189e-21 0 0 -1.95501e-20 0 0 -3.34189e-21 0 
3.72017e-21 0 -2.1205e-20 0 0 -3.72017e-21 0 0 
3.91978e-21 0 2.23428e-20 0 0 3.91978e-21 0 0 
3.57842e-21 0 0 -2.09337e-20 0 0 -3.57842e-21 0 
3.63751e-21 0 0 2.12794e-20 0 0 3.63751e-21 0 
3.3918e-21 0 -9.92103e-21 0 0 -3.3918e-21 0 0 
3.63212e-21 0 -2.12479e-20 0 0 -3.63212e-21 0 0 
3.62296e-21 0 2.11943e-20 0 0 3.62296e-21 0 0 
3.55858e-21 0 -2.08177e-20 0 0 -3.55858e-21 0 0 
3.52098e-21 0 2.05977e-20 0 0 3.52098e-21 0 0 
3.61594e-21 0 -2.06108e-20 0 0 -3.61594e-21 0 0 
3.69499e-21 0 2.10614e-20 0 0 3.69499e-21 0 0 
3.59558e-21 0 0 -2.10341e-20 0 0 -3.59558e-21 0 
3.57832e-21 0 0 2.09332e-20 0 0 3.57832e-21 0 
3.91254e-21 0 2.23015e-20 0 0 3.91254e-21 0 0 
3.78985e-21 0 -2.16021e-20 0 0 -3.78985e-21 0 0 
3.55235e-21 0 0 2.02484e-20 0 0 3.55235e-21 0 
3.52727e-21 0 0 -2.01054e-20 0 0 -3.52727e-21 0 
3.4563e-21 0 0 2.02193e-20 0 0 3.4563e-21 0 
3.41242e-21 0 9.98134e-21 0 0 3.41242e-21 0 0 
3.76021e-21 0 -2.14332e-20 0 0 -3.76021e-21 0 0 
3.67055e-21 0 2.09221e-20 0 0 3.67055e-21 0 0 
3.51875e-21 0 2.00569e-20 0 0 3.51875e-21 0 0 
3.58476e-21 0 -2.04332e-20 0 0 -3.58476e-21 0 0 
3.54614e-21 0 2.0213e-20 0 0 3.54614e-21 0 0 
3.60172e-21 0 -2.05298e-20 0 0 -3.60172e-21 0 0 
3.60506e-21 0 0 -2.05488e-20 0 0 -3.60506e-21 0 
3.58413e-21 0 0 2.04296e-20 0 0 3.58413e-21 0 
3.95985e-21 0 2.25712e-20 0 0 3.95985e-21 0 0 
3.82054e-21 0 -2.17771e-20 0 0 -3.82054e-21 0 0 
3.60167e-21 0 0 -2.05295e-20 0 0 -3.60167e-21 0 
3.54854e-21 0 0 2.02267e-20 0 0 3.54854e-21 0 
3.49548e-21 0 1.99242e-20 0 0 3.49548e-21 0 0 
3.52759e-21 0 -2.01073e-20 0 0 -3.52759e-21 0 0 
3.72309e-21 0 -2.12216e-20 0 0 -3.72309e-21 0 0 
3.55902e-21 0 2.02864e-20 0 0 3.55902e-21 0 0 
3.59618e-21 0 0 -2.04982e-20 0 0 -3.59618e-21 0 
3.5104e-21 0 0 2.00093e-20 0 0 3.5104e-21 0 
3.60993e-21 0 0 -2.05766e-20 0 0 -3.60993e-21 0 
3.68637e-21 0 0 2.10123e-20 0 0 3.68637e-21 0 
3.43033e-21 0 0 1.95529e-20 0 0 3.43033e-21 0 
3.46366e-21 0 0 -1.97429e-20 0 0 -3.46366e-21 0 
3.49884e-21 0 -1.99434e-20 0 0 -3.49884e-21 0 0 
3.50765e-21 0 1.99936e-20 0 0 3.50765e-21 0 0 
3.39008e-21 0 0 1.93235e-20 0 0 3.39008e-21 0 
3.46373e-21 0 0 -1.97433e-20 0 0 -3.46373e-21 0 
3.64815e-21 0 0 -2.07944e-20 0 0 -3.64815e-21 0 
3.7525e-21 0 0 2.13892e-20 0 0 3.7525e-21 0 
3.65128e-21 0 2.08123e-20 0 0 3.65128e-21 0 0 
3.62686e-21 0 -2.06731e-20 0 0 -3.62686e-21 0 0 
3.57616e-21 0 -2.03841e-20 0 0 -3.57616e-21 0 0 
3.58303e-21 0 2.04233e-20 0 0 3.58303e-21 0 0 
3.56152e-21 0 0 2.03007e-20 0 0 3.56152e-21 0 
3.56346e-21 0 0 -2.03117e-20 0 0 -3.56346e-21 0 
3.57817e-21 0 2.03956e-20 0 0 3.57817e-21 0 0 
3.69528e-21 0 -2.10631e-20 0 0 -3.69528e-21 0 0 
3.57033e-21 0 0 2.03509e-20 0 0 3.57033e-21 0 
3.60432e-21 0 0 -2.05446e-20 0 0 -3.60432e-21 0 
3.89691e-21 -5.28172e-24 0 -2.77655e-21 -7.41293e-24 0 -3.8969e-21 -8.59185e-35 
1.13016e-20 -1.3855e-22 -4.65542e-23 -2.08213e-21 -7.50193e-22 -2.52072e-22 -1.12739e-20 1.15454e-34 
6.78478e-21 -4.863e-23 -2.13926e-23 -1.25483e-21 -2.62703e-22 -1.15565e-22 -6.77871e-21 4.3474e-34 
1.24716e-20 -1.53586e-22 -1.02749e-22 -2.25693e-21 -8.45874e-22 -5.65886e-22 -1.243e-20 -1.14404e-33 
4.37286e-21 -5.20423e-25 -1.56383e-27 -1.09322e-21 -2.08169e-24 -6.25533e-27 -4.37286e-21 -1.39217e-33 
4.45936e-21 -6.31777e-24 -3.3131e-23 -1.07113e-21 -2.62894e-23 -1.37864e-22 -4.45715e-21 -2.40425e-34 
4.06146e-21 -7.17971e-24 -2.27177e-23 -6.54714e-22 -4.45093e-23 -1.40834e-22 -4.05878e-21 -3.90987e-50 
4.23687e-21 -1.38193e-23 -3.33269e-23 -7.65574e-22 -7.63942e-23 -1.84235e-22 -4.23217e-21 2.50959e-34 
7.4215e-21 -5.24137e-23 -2.34002e-23 -1.37259e-21 -2.83149e-22 -1.26413e-22 -7.41502e-21 7.69172e-34 
5.24188e-21 -2.93042e-23 -4.95843e-23 -9.42722e-22 -1.62639e-22 -2.75194e-22 -5.23212e-21 -1.25595e-33 
7.28287e-21 -6.96056e-23 -5.32222e-23 -1.32351e-21 -3.82182e-22 -2.92226e-22 -7.26697e-21 3.92773e-34 
3.34401e-21 -5.20804e-24 -1.26671e-23 -1.09361e-21 -1.59238e-23 -3.873e-23 -3.34374e-21 -4.29026e-34 
5.10573e-21 -1.48029e-23 -9.52006e-24 -8.41654e-22 -8.97794e-23 -5.7739e-23 -5.10462e-21 2.00241e-34 
5.07107e-21 -6.97061e-24 -2.4079e-23 -6.07615e-22 -5.81263e-23 -2.0079e-22 -5.06676e-21 -5.79303e-34 
3.10626e-21 -5.38985e-24 -8.76627e-24 -5.07284e-22 -3.29969e-23 -5.36676e-23 -3.10562e-21 -8.84299e-35 
5.35713e-21 -1.69914e-24 0 -1.00446e-22 -9.0608e-23 0 -5.35636e-21 4.40149e-34 
4.88864e-21 -1.57986e-23 2.5636e-23 -8.94436e-22 -8.63e-23 1.40037e-22 -4.88587e-21 -1.00695e-33 
4.38271e-21 -1.60605e-23 0 -1.56134e-21 -4.50796e-23 0 -4.38248e-21 3.80339e-34 
4.75546e-21 -6.06134e-25 1.52602e-23 -1.14559e-21 -2.5159e-24 6.33413e-23 -4.75504e-21 3.56877e-34 
4.44438e-21 -6.29654e-24 3.30197e-23 -1.06753e-21 -2.62011e-23 1.37401e-22 -4.44218e-21 8.58659e-36 
8.26311e-21 -7.9067e-23 6.80763e-23 -1.49534e-21 -4.35858e-22 3.75272e-22 -8.24307e-21 2.27501e-34 
5.95288e-21 -4.20961e-23 2.17517e-23 -1.09899e-21 -2.2781e-22 1.17713e-22 -5.94735e-21 -2.15894e-34 
7.3295e-21 -6.34201e-23 8.03447e-23 -1.31083e-21 -3.53536e-22 4.47882e-22 -7.30725e-21 9.96925e-34 
4.74766e-21 -2.37434e-23 2.99394e-23 -8.65955e-22 -1.30048e-22 1.63985e-22 -4.74305e-21 -3.05161e-34 
4.6676e-21 -9.08551e-24 2.61081e-23 -7.52423e-22 -5.63232e-23 1.6185e-22 -4.66445e-21 5.71381e-34 
4.2935e-21 -7.43735e-24 8.00559e-24 -7.07762e-22 -4.51119e-23 4.85586e-23 -4.29299e-21 -6.67537e-35 
5.52821e-21 -5.16747e-23 0 -1.96943e-21 -1.45002e-22 0 -5.52631e-21 1.18315e-33 
3.94036e-21 -1.33738e-24 0 -2.80751e-21 -1.87703e-24 0 -3.94036e-21 3.85186e-34 
4.11418e-21 -6.77525e-24 2.41665e-23 -1.00067e-21 -2.78471e-23 9.93271e-23 -4.11288e-21 5.08873e-34 
1.01584e-20 -1.20872e-22 0 -1.85708e-21 -6.59787e-22 0 -1.01369e-20 -9.08603e-34 
4.63716e-21 -6.28503e-24 3.30398e-21 0 -8.82108e-24 4.63715e-21 0 -3.5912e-34 
1.1683e-20 -1.43225e-22 2.15238e-21 -4.8125e-23 -7.75506e-22 1.16543e-20 -2.60577e-22 3.31465e-34 
5.64746e-21 -4.04782e-23 1.04449e-21 -1.78066e-23 -2.18667e-22 5.6424e-21 -9.61927e-23 -6.13095e-34 
1.34925e-20 -1.66158e-22 2.44167e-21 -1.11159e-22 -9.15112e-22 1.34475e-20 -6.12207e-22 -4.31858e-34 
3.39346e-21 -4.03862e-25 8.48364e-22 -1.21358e-27 -1.61545e-24 3.39346e-21 -4.8543e-27 3.43916e-34 
4.70183e-21 -6.66128e-24 1.12936e-21 -3.49324e-23 -2.77188e-23 4.6995e-21 -1.4536e-22 3.89259e-34 
3.69284e-21 -6.52807e-24 5.9529e-22 -2.06558e-23 -4.04695e-23 3.69039e-21 -1.28052e-22 -1.32187e-34 
5.33496e-21 -1.74009e-23 9.63991e-22 -4.19644e-23 -9.61937e-23 5.32904e-21 -2.31984e-22 -4.44882e-34 
6.1201e-21 -4.32226e-23 1.1319e-21 -1.92968e-23 -2.33497e-22 6.11475e-21 -1.04245e-22 6.42835e-34 
6.9861e-21 -3.90551e-23 1.25641e-21 -6.60833e-23 -2.16757e-22 6.9731e-21 -3.66764e-22 -1.32467e-33 
7.82723e-21 -7.48082e-23 1.42244e-21 -5.72003e-23 -4.10747e-22 7.81013e-21 -3.14068e-22 7.10013e-34 
3.33184e-21 -5.18909e-24 1.08963e-21 -1.2621e-23 -1.58658e-23 3.33158e-21 -3.85891e-23 2.71296e-34 
4.01219e-21 -1.16324e-23 6.6139e-22 -7.48106e-24 -7.05506e-23 4.01132e-21 -4.53725e-23 2.92018e-35 
4.65268e-21 -6.39549e-24 5.57483e-22 -2.20924e-23 -5.33306e-23 4.64872e-21 -1.84223e-22 -9.34915e-34 
3.64622e-21 -6.32676e-24 5.95465e-22 -1.02901e-23 -3.87328e-23 3.64547e-21 -6.29966e-23 8.33767e-34 
2.56762e-21 -8.14383e-25 4.81429e-23 0 -4.34275e-23 2.56725e-21 0 2.20074e-34 
4.47908e-21 -1.4475e-23 8.19502e-22 2.34882e-23 -7.907e-23 4.47654e-21 1.28305e-22 -2.14166e-34 
4.41574e-21 -1.61815e-23 1.57311e-21 0 -4.54193e-23 4.4155e-21 0 2.81876e-34 
4.23349e-21 -5.39602e-25 1.01984e-21 1.35852e-23 -2.23975e-24 4.23311e-21 5.63888e-23 1.79866e-34 
4.71747e-21 -6.68343e-24 1.13312e-21 3.50486e-23 -2.7811e-23 4.71513e-21 1.45844e-22 -8.30037e-34 
8.36349e-21 -8.00276e-23 1.5135e-21 6.89033e-23 -4.41153e-22 8.34321e-21 3.79831e-22 3.8296e-34 
5.37622e-21 -3.80183e-23 9.92529e-22 1.96446e-23 -2.05742e-22 5.37123e-21 1.0631e-22 1.55593e-33 
7.64926e-21 -6.61869e-23 1.36802e-21 8.38498e-23 -3.68959e-22 7.62604e-21 4.67422e-22 3.37421e-34 
6.17981e-21 -3.09056e-23 1.12717e-21 3.89707e-23 -1.69278e-22 6.1738e-21 2.13452e-22 -3.12696e-34 
5.45795e-21 -1.06239e-23 8.7983e-22 3.05289e-23 -6.58603e-23 5.45427e-21 1.89256e-22 8.82655e-34 
4.71397e-21 -8.16571e-24 7.77074e-22 8.78959e-24 -4.95298e-23 4.71341e-21 5.3314e-23 -5.00653e-35 
5.93203e-21 -5.54493e-23 2.11329e-21 0 -1.55594e-22 5.92999e-21 0 1.0519e-33 
4.08682e-21 -1.38709e-24 2.91186e-21 0 -1.9468e-24 4.08681e-21 0 3.84221e-34 
4.2106e-21 -6.93404e-24 1.02412e-21 2.47328e-23 -2.84998e-23 4.20928e-21 1.01655e-22 -2.17685e-34 
1.10614e-20 -1.31618e-22 2.02217e-21 0 -7.18439e-22 1.10381e-20 0 -9.23621e-34 
4.10052e-21 -5.55768e-24 0 2.92162e-21 -7.80025e-24 0 4.10051e-21 -3.15678e-34 
1.02929e-20 -1.26184e-22 4.23992e-23 1.8963e-21 -6.83237e-22 2.29574e-22 1.02677e-20 -7.59764e-34 
6.94293e-21 -4.97634e-23 2.18912e-23 1.28408e-21 -2.68826e-22 1.18258e-22 6.93671e-21 -2.89827e-34 
1.29449e-20 -1.59415e-22 1.06648e-22 2.34259e-21 -8.77975e-22 5.87362e-22 1.29018e-20 1.81835e-34 
3.83284e-21 -4.56155e-25 1.37071e-27 9.58211e-22 -1.82462e-24 5.48284e-27 3.83284e-21 3.38413e-34 
4.91032e-21 -6.95666e-24 3.64814e-23 1.17944e-21 -2.8948e-23 1.51806e-22 4.90789e-21 2.28976e-34 
3.54708e-21 -6.2704e-24 1.98405e-23 5.71794e-22 -3.88722e-23 1.22998e-22 3.54473e-21 -1.79092e-34 
4.13669e-21 -1.34925e-23 3.2539e-23 7.47473e-22 -7.45881e-23 1.79879e-22 4.13211e-21 -2.09132e-34 
6.9307e-21 -4.89474e-23 2.18527e-23 1.28182e-21 -2.64424e-22 1.18053e-22 6.92465e-21 6.87424e-34 
5.04294e-21 -2.81921e-23 4.77024e-23 9.06943e-22 -1.56466e-22 2.64749e-22 5.03355e-21 -1.04981e-33 
7.57343e-21 -7.23826e-23 5.53456e-23 1.37631e-21 -3.97429e-22 3.03885e-22 7.55689e-21 -4.8719e-34 
4.21729e-21 -6.56811e-24 1.59751e-23 1.3792e-21 -2.00822e-23 4.88443e-23 4.21696e-21 2.08204e-34 
4.46328e-21 -1.29403e-23 8.32214e-24 7.35748e-22 -7.84824e-23 5.04737e-23 4.4623e-21 6.6747e-35 
6.30274e-21 -8.66364e-24 2.99274e-23 7.55193e-22 -7.22441e-23 2.49558e-22 6.29738e-21 -1.00948e-33 
4.72015e-21 -8.19021e-24 1.33209e-23 7.70849e-22 -5.01409e-23 8.15512e-23 4.71918e-21 1.2296e-33 
3.13011e-21 -9.92792e-25 0 5.86897e-23 -5.29413e-23 0 3.12967e-21 -6.60223e-34 
4.1539e-21 -1.34241e-23 -2.1783e-23 7.60006e-22 -7.33294e-23 -1.1899e-22 4.15154e-21 -5.37293e-34 
4.16644e-21 -1.52679e-23 0 1.48429e-21 -4.28551e-23 0 4.16622e-21 1.33215e-34 
4.86639e-21 -6.20273e-25 -1.56162e-23 1.17231e-21 -2.57459e-24 -6.48189e-23 4.86596e-21 3.36891e-34 
3.89775e-21 -5.5221e-24 -2.89585e-23 9.36227e-22 -2.29785e-23 -1.20502e-22 3.89582e-21 -4.72263e-34 
8.79303e-21 -8.41377e-23 -7.24421e-23 1.59124e-21 -4.6381e-22 -3.99338e-22 8.77171e-21 -2.27501e-35 
6.1243e-21 -4.33084e-23 -2.2378e-23 1.13064e-21 -2.3437e-22 -1.21102e-22 6.11862e-21 -5.88126e-34 
7.59188e-21 -6.56904e-23 -8.32209e-23 1.35776e-21 -3.66192e-22 -4.63915e-22 7.56884e-21 1.75996e-33 
4.8065e-21 -2.40376e-23 -3.03104e-23 8.76687e-22 -1.3166e-22 -1.66018e-22 4.80182e-21 -9.6446e-34 
5.07132e-21 -9.87135e-24 -2.83663e-23 8.17503e-22 -6.11948e-23 -1.75849e-22 5.0679e-21 7.0783e-34 
4.0929e-21 -7.08986e-24 -7.63155e-24 6.74694e-22 -4.30042e-23 -4.62898e-23 4.09241e-21 -2.08605e-34 
5.55613e-21 -5.19356e-23 0 1.97937e-21 -1.45734e-22 0 5.55421e-21 1.72164e-33 
4.21657e-21 -1.43113e-24 0 3.00431e-21 -2.00861e-24 0 4.21657e-21 2.0466e-34 
3.96873e-21 -6.53573e-24 -2.33121e-23 9.65295e-22 -2.68626e-23 -9.58156e-23 3.96748e-21 2.14858e-34 
1.02696e-20 -1.22196e-22 0 1.87741e-21 -6.6701e-22 0 1.02479e-20 -3.90474e-34 
4.36958e-21 -5.92236e-24 -3.11333e-21 0 -8.31207e-24 -4.36957e-21 0 -1.03295e-34 
1.13845e-20 -1.39566e-22 -2.0974e-21 4.68955e-23 -7.55694e-22 -1.13565e-20 2.5392e-22 7.33693e-34 
5.28273e-21 -3.7864e-23 -9.7703e-22 1.66566e-23 -2.04544e-22 -5.278e-21 8.99802e-23 1.37482e-34 
1.40887e-20 -1.735e-22 -2.54957e-21 1.16071e-22 -9.55551e-22 -1.40417e-20 6.3926e-22 -8.56139e-34 
3.15523e-21 -3.7551e-25 -7.88808e-22 1.12838e-27 -1.50204e-24 -3.15523e-21 4.51353e-27 2.03598e-34 
3.82381e-21 -5.41735e-24 -9.18467e-22 2.84091e-23 -2.25426e-23 -3.82191e-21 1.18216e-22 2.80495e-34 
3.94083e-21 -6.96646e-24 -6.35267e-22 2.20429e-23 -4.31873e-23 -3.93822e-21 1.36651e-22 -2.68638e-34 
5.33696e-21 -1.74074e-23 -9.64354e-22 4.19802e-23 -9.62299e-23 -5.33105e-21 2.32071e-22 -1.9012e-35 
6.55473e-21 -4.62921e-23 -1.21228e-21 2.06672e-23 -2.50079e-22 -6.549e-21 1.11649e-22 4.53329e-34 
7.18075e-21 -4.01433e-23 -1.29142e-21 6.79246e-23 -2.22796e-22 -7.16739e-21 3.76983e-22 -1.74841e-33 
7.49342e-21 -7.16178e-23 -1.36177e-21 5.47608e-23 -3.9323e-22 -7.47705e-21 3.00674e-22 4.15433e-35 
3.94578e-21 -6.14527e-24 -1.29041e-21 1.49466e-23 -1.87894e-23 -3.94547e-21 4.56998e-23 -2.73399e-34 
4.58321e-21 -1.3288e-23 -7.5552e-22 8.54578e-24 -8.05914e-23 -4.58221e-21 5.183e-23 6.92501e-34 
5.83496e-21 -8.02064e-24 -6.99144e-22 2.77062e-23 -6.68823e-23 -5.83e-21 2.31036e-22 -9.34915e-34 
3.64106e-21 -6.31781e-24 -5.94622e-22 1.02755e-23 -3.8678e-23 -3.64031e-21 6.29074e-23 6.31642e-35 
4.11612e-22 -1.30553e-25 -7.71774e-24 0 -6.96182e-24 -4.11553e-22 0 4.40149e-34 
4.32241e-21 -1.39687e-23 -7.90838e-22 -2.26667e-23 -7.63042e-23 -4.31996e-21 -1.23817e-22 -6.61283e-34 
3.98812e-21 -1.46145e-23 -1.42077e-21 0 -4.1021e-23 -3.98791e-21 0 2.08511e-34 
4.51981e-21 -5.76097e-25 -1.08882e-21 -1.4504e-23 -2.39123e-24 -4.5194e-21 -6.02025e-23 2.42676e-34 
3.78711e-21 -5.36536e-24 -9.09652e-22 -2.81365e-23 -2.23263e-23 -3.78523e-21 -1.17081e-22 -3.57775e-34 
9.49863e-21 -9.08894e-23 -1.71892e-21 -7.82553e-23 -5.01029e-22 -9.4756e-21 -4.31384e-22 5.87711e-34 
5.70385e-21 -4.03351e-23 -1.05301e-21 -2.08417e-23 -2.1828e-22 -5.69856e-21 -1.12788e-22 1.01619e-33 
7.21062e-21 -6.23915e-23 -1.28957e-21 -7.90416e-23 -3.47802e-22 -7.18873e-21 -4.40618e-22 6.48001e-34 
6.43312e-21 -3.21725e-23 -1.17338e-21 -4.05681e-23 -1.76216e-22 -6.42686e-21 -2.22202e-22 -2.90091e-34 
4.74854e-21 -9.24306e-24 -7.65471e-22 -2.65608e-23 -5.72999e-23 -4.74534e-21 -1.64657e-22 1.08306e-33 
4.29428e-21 -7.4387e-24 -7.0789e-22 -8.00704e-24 -4.51201e-23 -4.29377e-21 -4.85674e-23 -3.42113e-34 
5.68159e-21 -5.31083e-23 -2.02407e-21 0 -1.49025e-22 -5.67963e-21 0 1.22754e-33 
4.33135e-21 -1.47009e-24 -3.08609e-21 0 -2.06328e-24 -4.33135e-21 0 1.97903e-34 
3.7768e-21 -6.21966e-24 -9.18613e-22 -2.21847e-23 -2.55636e-23 -3.77561e-21 -9.11819e-23 -8.19852e-35 
1.06774e-20 -1.27048e-22 -1.95196e-21 0 -6.93496e-22 -1.06549e-20 0 -4.88092e-34 
3.2271e-20 0 -2.6957e-20 -2.6957e-20 0 -2.28191e-20 -2.28191e-20 1.62104e-32 
0 0 0 0 0 0 0 0 
0 0 0 0 0 0 0 0 
0 0 0 0 0 0 0 0 
0 0 0 0 0 0 0 0 
0 0 0 0 0 0 0 0 
0 0 0 0 0 0 0 0 
0 0 0 0 0 0 0 0 
0 0 0 0 0 0 0 0 
0 0 0 0 0 0 0 0 
0 0 0 0 0 0 0 0 
0 0 0 0 0 0 0 0 
0 0 0 0 0 0 0 0 
0 0 0 0 0 0 0 0 
0 0 0 0 0 0 0 0 
0 0 0 0 0 0 0 0 
0 0 0 0 0 0 0 0 
0 0 0 0 0 0 0 0 
0 0 0 0 0 0 0 0 
0 0 0 0 0 0 0 0 
0 0 0 0 0 0 0 0 
0 0 0 0 0 0 0 0 
0 0 0 0 0 0 0 0 
0 0 0 0 0 0 0 0 
0 0 0 0 0 0 0 0 
0 0 0 0 0 0 0 0 
0 0 0 0 0 0 0 0 
0 0 0 0 0 0 0 0 
0 0 0 0 0 0 0 0 
0 0 0 0 0 0 0 0 
0 0 0 0 0 0 0 0 
0 0 0 0 0 0 0 0 
0 0 0 0 0 0 0 0 
0 0 0 0 0 0 0 0 
0 0 0 0 0 0 0 0 
0 0 0 0 0 0 0 0 
0 0 0 0 0 0 0 0 
0 0 0 0 0 0 0 0 
0 0 0 0 0 0 0 0 
0 0 0 0 0 0 0 0 
0 0 0 0 0 0 0 0 
0 0 0 0 0 0 0 0 
0 0 0 0 0 0 0 0 
0 0 0 0 0 0 0 0 
0 0 0 0 0 0 0 0 
0 0 0 0 0 0 0 0 
0 0 0 0 0 0 0 0 
3.22215e-20 0 2.69156e-20 2.69156e-20 0 2.2784e-20 2.2784e-20 1.63187e-32 
4.26324e-20 -1.74455e-21 -2.64377e-22 -9.84516e-21 -7.43591e-21 -1.12687e-21 -4.19637e-20 -2.07395e-32 
4.75775e-20 -2.88973e-21 -1.05521e-21 -1.60246e-20 -8.42584e-21 -3.07677e-21 -4.67243e-20 -1.35376e-32 
3.65694e-20 -1.33824e-21 -2.35343e-22 -7.48443e-21 -6.43355e-21 -1.13141e-21 -3.59812e-20 -1.72612e-33 
7.38679e-20 -2.21876e-21 -1.77041e-21 -8.77165e-21 -1.7777e-20 -1.41848e-20 -7.02797e-20 -5.97944e-33 
9.23354e-20 -1.53069e-21 -9.05111e-22 -6.15538e-21 -2.20595e-20 -1.30439e-20 -8.87078e-20 -5.86828e-33 
8.76823e-20 -1.54182e-21 -6.10461e-22 -6.33763e-21 -2.06367e-20 -8.17077e-21 -8.48266e-20 6.61016e-33 
5.50801e-20 -9.02033e-22 -3.30017e-22 -4.06792e-21 -1.18868e-20 -4.34888e-21 -5.3606e-20 6.29953e-33 
3.58058e-20 -1.12444e-21 -3.14749e-22 -6.17657e-21 -6.40496e-21 -1.79286e-21 -3.51827e-20 6.85649e-34 
4.00918e-20 -1.3965e-21 -3.73853e-22 -7.52168e-21 -7.3098e-21 -1.95688e-21 -3.93712e-20 -4.38164e-33 
4.07646e-20 -1.31026e-21 -5.77932e-22 -6.96531e-21 -7.51121e-21 -3.31306e-21 -3.99294e-20 1.41951e-33 
4.40143e-20 -1.46754e-21 -7.41036e-22 -7.49214e-21 -8.42103e-21 -4.25221e-21 -4.29914e-20 -3.11806e-34 
1.17676e-19 -2.72502e-21 -2.4022e-21 -1.35413e-20 -2.28722e-20 -2.01626e-20 -1.13658e-19 3.80342e-32 
4.16766e-20 -1.5642e-21 -9.04122e-22 -7.81761e-21 -8.12481e-21 -4.69621e-21 -4.06064e-20 -3.27264e-33 
4.74593e-20 -1.0337e-21 -3.60835e-22 -5.08995e-21 -9.42282e-21 -3.28924e-21 -4.6398e-20 1.08409e-32 
4.54063e-20 -1.25633e-21 -6.77782e-22 -5.91984e-21 -9.36782e-21 -5.05386e-21 -4.41411e-20 -9.74472e-35 
6.95605e-20 -1.16905e-21 -5.54272e-22 -4.77371e-21 -1.64418e-20 -7.79539e-21 -6.71384e-20 -1.74225e-32 
5.3069e-20 -8.25975e-22 -3.6318e-22 -3.70631e-21 -1.14911e-20 -5.05264e-21 -5.1563e-20 -1.35118e-32 
5.22706e-20 -1.609e-21 -7.15828e-22 -7.30514e-21 -1.11923e-20 -4.97934e-21 -5.0815e-20 8.61228e-35 
5.40177e-20 -1.47295e-21 -1.0011e-21 -6.64748e-21 -1.15615e-20 -7.85787e-21 -5.21776e-20 3.52551e-33 
7.52954e-20 -1.75149e-21 -1.67452e-21 -8.06525e-21 -1.566e-20 -1.49718e-20 -7.2111e-20 1.61926e-32 