ITEM: TIMESTEP
110
ITEM: NUMBER OF SURFS
6916
ITEM: BOX BOUNDS oo rr rr
-0.35 0.35
-0.25 0.25
-0.25 0.25
ITEM: SURFS f_save[1] f_save[2] f_save[3] f_save[4] f_save[5] f_save[6] f_save[7] f_save[8] 
11.2382 -8.43213e-05 0 0 -11.2382 0 0 0 
6.86412 -5.15024e-05 0 0 -6.86412 0 0 0 
0 0 0 0 0 0 0 0 
0.925933 -1.88268e-05 0.000277896 -6.60409e-07 0 0.925933 0 129.599 
0.696847 -5.70427e-05 0.000209126 -2.47301e-05 0 0.696847 0 507.307 
0.863059 -4.10884e-05 -0.000259026 2.36395e-06 0 -0.863059 0 256.69 
0.860236 -3.24859e-05 -0.00025816 -4.94304e-06 0 -0.860236 0 225.548 
0 0 0 0 0 0 0 0 
0 0 0 0 0 0 0 0 
0 0 0 0 0 0 0 0 
0.170109 -4.13513e-05 5.63143e-06 9.95136e-05 0 0 0.170109 136.1 
0.130091 1.23703e-06 2.32946e-06 7.61031e-05 0 0 0.130091 -0.107354 
0 0 0 0 0 0 0 0 
12.7515 -3.10819e-05 0 0 -12.7515 0 0 0 
0 0 0 0 0 0 0 0 
0 0 0 0 0 0 0 0 
0 0 0 0 0 0 0 0 
0 0 0 0 0 0 0 0 
13.5875 -3.31195e-05 0 0 -13.5875 0 0 0 
19.7272 -4.8085e-05 0 0 -19.7272 0 0 0 
0 0 0 0 0 0 0 0 
0 0 0 0 0 0 0 0 
11.9279 -2.83288e-05 0 0 -11.9279 0 0 0 
8.48477 -2.01514e-05 0 0 -8.48477 0 0 0 
0 0 0 0 0 0 0 0 
0 0 0 0 0 0 0 0 
0 0 0 0 0 0 0 0 
0 0 0 0 0 0 0 0 
11.6746 -2.84569e-05 0 0 -11.6746 0 0 0 
21.0119 -5.12167e-05 0 0 -21.0119 0 0 0 
0 0 0 0 0 0 0 0 
0 0 0 0 0 0 0 0 
15.1963 -3.60912e-05 2.00122e-06 -6.55552e-07 -15.1963 0 0 12089.4 
0 0 0 0 0 0 0 0 
19.1848 -4.5564e-05 -1.70902e-06 -1.28057e-06 -19.1848 0 0 10840.3 
0 0 0 0 0 0 0 0 
0 0 0 0 0 0 0 0 
0 0 0 0 0 0 0 0 
11.6834 -2.77481e-05 0 0 -11.6834 0 0 0 
37.5281 -8.91291e-05 0 0 -37.5281 0 0 0 
0 0 0 0 0 0 0 0 
12.9201 -3.06854e-05 0 0 -12.9201 0 0 0 
26.1326 -6.20652e-05 0 0 -26.1326 0 0 0 
11.3979 -2.70701e-05 0 0 -11.3979 0 0 0 
6.76312 -1.60624e-05 -1.76618e-06 2.20663e-06 -6.76312 0 0 10685.1 
0 0 0 0 0 0 0 0 
26.4983 -6.45894e-05 -9.68337e-07 2.14534e-07 -26.4983 0 0 9920.6 
4.07454 -9.93167e-06 -1.27493e-06 -5.88951e-07 -4.07454 0 0 7303.02 
12.2412 -2.9838e-05 0 0 -12.2412 0 0 0 
12.1249 -2.95545e-05 0 0 -12.1249 0 0 0 
25.3449 -6.17784e-05 0 0 -25.3449 0 0 0 
7.58918 -1.84987e-05 0 0 -7.58918 0 0 0 
0 0 0 0 0 0 0 0 
0 0 0 0 0 0 0 0 
0 0 0 0 0 0 0 0 
0 0 0 0 0 0 0 0 
13.0831 -3.10723e-05 0 0 -13.0831 0 0 0 
0 0 0 0 0 0 0 0 
13.3431 -3.16898e-05 0 0 -13.3431 0 0 0 
39.7658 -9.44437e-05 0 0 -39.7658 0 0 0 
11.3821 -2.77439e-05 0 0 -11.3821 0 0 0 
10.9354 -2.66552e-05 0 0 -10.9354 0 0 0 
22.5357 -5.49309e-05 0 0 -22.5357 0 0 0 
25.419 -6.1959e-05 0 0 -25.419 0 0 0 
0 0 0 0 0 0 0 0 
0 0 0 0 0 0 0 0 
11.2657 -2.74604e-05 0 0 -11.2657 0 0 0 
0 0 0 0 0 0 0 0 
13.3718 -3.1758e-05 0 0 -13.3718 0 0 0 
0 0 0 0 0 0 0 0 
16.6724 -4.06391e-05 0 0 -16.6724 0 0 0 
0 0 0 0 0 0 0 0 
0 0 0 0 0 0 0 0 
12.9053 -3.06501e-05 0 0 -12.9053 0 0 0 
24.2876 -5.92009e-05 0 0 -24.2876 0 0 0 
12.3605 -3.01286e-05 -3.29198e-06 8.85191e-07 -12.3605 0 0 18674.6 
15.2406 -3.71491e-05 -1.65484e-07 8.99661e-07 -15.2406 0 0 4959.8 
11.3248 -2.76043e-05 0 0 -11.3248 0 0 0 
5.00658 -1.18906e-05 0 0 -5.00658 0 0 0 
24.8568 -5.90349e-05 0 0 -24.8568 0 0 0 
0 0 0 0 0 0 0 0 
0 0 0 0 0 0 0 0 
25.0486 -5.94905e-05 0 0 -25.0486 0 0 0 
8.90829 -2.11572e-05 0 0 -8.90829 0 0 0 
0 0 0 0 0 0 0 0 
12.3538 -2.93404e-05 0 0 -12.3538 0 0 0 
0 0 0 0 0 0 0 0 
12.7171 -3.0203e-05 0 0 -12.7171 0 0 0 
0 0 0 0 0 0 0 0 
11.2568 -2.74384e-05 0 0 -11.2568 0 0 0 
4.61582 -1.12511e-05 0 0 -4.61582 0 0 0 
23.5268 -5.73469e-05 0 0 -23.5268 0 0 0 
0 0 0 0 0 0 0 0 
0 0 0 0 0 0 0 0 
24.3305 -5.93058e-05 0 0 -24.3305 0 0 0 
34.9919 -8.52929e-05 2.63976e-06 1.55273e-06 -34.9919 0 0 19471 
27.0527 -6.42502e-05 -1.37238e-07 -1.59026e-06 -27.0527 0 0 9649.82 
4.3175 -1.02541e-05 1.49256e-06 -6.81943e-07 -4.3175 0 0 5416.65 
0 0 0 0 0 0 0 0 
0 0 0 0 0 0 0 0 
12.5924 -2.99071e-05 0 0 -12.5924 0 0 0 
36.6743 -8.71017e-05 6.407e-06 5.49075e-07 -36.6743 0 0 19735.7 
6.33619 -1.50485e-05 1.06019e-06 1.09701e-06 -6.33619 0 0 9771.98 
12.0698 -2.86658e-05 0 0 -12.0698 0 0 0 
0 0 0 0 0 0 0 0 
0 0 0 0 0 0 0 0 
6.68567 -1.58784e-05 6.59827e-07 -4.72047e-07 -6.68567 0 0 11712.4 
0 0 0 0 0 0 0 0 
7.52302 -1.78672e-05 0 0 -7.52302 0 0 0 
7.55811 -1.79505e-05 -1.20728e-06 -1.94303e-06 -7.55811 0 0 12244.1 
0 0 0 0 0 0 0 0 
0 0 0 0 0 0 0 0 
12.7414 -3.02607e-05 0 0 -12.7414 0 0 0 
13.0429 -3.0977e-05 0 0 -13.0429 0 0 0 
0 0 0 0 0 0 0 0 
2.78944 -6.62493e-06 1.08705e-05 -1.36357e-06 -2.78944 0 0 5486.42 
0 0 0 0 0 0 0 0 
0 0 0 0 0 0 0 0 
10.6862 -2.53797e-05 0 0 -10.6862 0 0 0 
0 0 0 0 0 0 0 0 
11.184 -2.65622e-05 0 0 -11.184 0 0 0 
0 0 0 0 0 0 0 0 
0 0 0 0 0 0 0 0 
0 0 0 0 0 0 0 0 
6.46343 -1.53507e-05 -7.13212e-07 -2.13114e-06 -6.46343 0 0 10350.1 
8.88587 -2.1104e-05 0 0 -8.88587 0 0 0 
15.4201 -3.75866e-05 0 0 -15.4201 0 0 0 
0 0 0 0 0 0 0 0 
0 0 0 0 0 0 0 0 
0 0 0 0 0 0 0 0 
0 0 0 0 0 0 0 0 
0 0 0 0 0 0 0 0 
12.8699 -3.13704e-05 0 0 -12.8699 0 0 0 
11.0645 -2.69697e-05 0 0 -11.0645 0 0 0 
0 0 0 0 0 0 0 0 
0 0 0 0 0 0 0 0 
0 0 0 0 0 0 0 0 
13.0736 -3.10499e-05 0 0 -13.0736 0 0 0 
0 0 0 0 0 0 0 0 
12.0485 -2.93681e-05 0 0 -12.0485 0 0 0 
0 0 0 0 0 0 0 0 
0 0 0 0 0 0 0 0 
19.6132 -4.65814e-05 6.60097e-08 3.26887e-07 -19.6132 0 0 10520.7 
12.9328 -3.07154e-05 0 0 -12.9328 0 0 0 
0 0 0 0 0 0 0 0 
17.7925 -4.33693e-05 -1.88176e-07 -2.99759e-06 -17.7925 0 0 10923.3 
0 0 0 0 0 0 0 0 
0 0 0 0 0 0 0 0 
10.1084 -2.40077e-05 0 0 -10.1084 0 0 0 
12.2784 -2.91613e-05 0 0 -12.2784 0 0 0 
46.2874 -0.000112826 0 0 -46.2874 0 0 0 
27.1478 -6.61728e-05 4.62728e-07 -9.65901e-07 -27.1478 0 0 10605 
0 0 0 0 0 0 0 0 
0 0 0 0 0 0 0 0 
0 0 0 0 0 0 0 0 
0 0 0 0 0 0 0 0 
11.7395 -2.78814e-05 0 0 -11.7395 0 0 0 
3.64539 -8.65782e-06 0 0 -3.64539 0 0 0 
0 0 0 0 0 0 0 0 
0 0 0 0 0 0 0 0 
12.3117 -3.00097e-05 0 0 -12.3117 0 0 0 
11.3409 -2.76434e-05 0 0 -11.3409 0 0 0 
18.4803 -4.50459e-05 -6.35516e-07 1.68025e-06 -18.4803 0 0 9164.76 
0 0 0 0 0 0 0 0 
0 0 0 0 0 0 0 0 
0 0 0 0 0 0 0 0 
0 0 0 0 0 0 0 0 
0 0 0 0 0 0 0 0 
3.13045 -7.43486e-06 1.68261e-06 -3.35576e-07 -3.13045 0 0 5850.99 
17.8059 -4.22892e-05 0 0 -17.8059 0 0 0 
0 0 0 0 0 0 0 0 
0 0 0 0 0 0 0 0 
11.4073 -2.78052e-05 0 0 -11.4073 0 0 0 
0 0 0 0 0 0 0 0 
18.3787 -4.36493e-05 1.63168e-06 -3.63341e-06 -18.3787 0 0 17529.8 
7.78775 -1.84959e-05 0 0 -7.78775 0 0 0 
0 0 0 0 0 0 0 0 
0 0 0 0 0 0 0 0 
20.1326 -4.78151e-05 -9.84556e-07 1.70039e-07 -20.1326 0 0 10281.1 
0 0 0 0 0 0 0 0 
17.9056 -4.25259e-05 0 0 -17.9056 0 0 0 
13.1864 -3.13179e-05 0 0 -13.1864 0 0 0 
0 0 0 0 0 0 0 0 
0 0 0 0 0 0 0 0 
0 0 0 0 0 0 0 0 
11.7441 -2.78923e-05 0 0 -11.7441 0 0 0 
19.9995 -4.74986e-05 0 0 -19.9995 0 0 0 
12.9256 -3.06983e-05 0 0 -12.9256 0 0 0 
0 0 0 0 0 0 0 0 
0 0 0 0 0 0 0 0 
0 0 0 0 0 0 0 0 
7.16887 -1.70262e-05 8.70534e-07 5.4175e-07 -7.16887 0 0 12030.8 
0 0 0 0 0 0 0 0 
0 0 0 0 0 0 0 0 
35.7632 -8.49377e-05 0 0 -35.7632 0 0 0 
0 0 0 0 0 0 0 0 
0 0 0 0 0 0 0 0 
0 0 0 0 0 0 0 0 
12.3368 -3.00711e-05 0 0 -12.3368 0 0 0 
0 0 0 0 0 0 0 0 
11.4768 -2.72574e-05 0 0 -11.4768 0 0 0 
0 0 0 0 0 0 0 0 
0 0 0 0 0 0 0 0 
0 0 0 0 0 0 0 0 
0 0 0 0 0 0 0 0 
0 0 0 0 0 0 0 0 
0 0 0 0 0 0 0 0 
0 0 0 0 0 0 0 0 
0 0 0 0 0 0 0 0 
0 0 0 0 0 0 0 0 
0 0 0 0 0 0 0 0 
12.2907 -2.91904e-05 0 0 -12.2907 0 0 0 
0 0 0 0 0 0 0 0 
0 0 0 0 0 0 0 0 
26.1773 -6.2171e-05 0 0 -26.1773 0 0 0 
11.9409 -2.83595e-05 0 0 -11.9409 0 0 0 
0 0 0 0 0 0 0 0 
0 0 0 0 0 0 0 0 
0 0 0 0 0 0 0 0 
0 0 0 0 0 0 0 0 
6.87785 -1.63349e-05 -4.11187e-06 6.25921e-07 -6.87785 0 0 12438.2 
0 0 0 0 0 0 0 0 
0 0 0 0 0 0 0 0 
0 0 0 0 0 0 0 0 
0 0 0 0 0 0 0 0 
43.2991 -0.000102836 2.45642e-07 -3.86045e-07 -43.2991 0 0 9576.09 
13.7393 -3.2631e-05 0 0 -13.7393 0 0 0 
7.5894 -1.80249e-05 5.67585e-07 -1.66269e-06 -7.5894 0 0 14045.1 
0 0 0 0 0 0 0 0 
0 0 0 0 0 0 0 0 
26.1274 -6.20527e-05 0 0 -26.1274 0 0 0 
4.41886 -1.04948e-05 0 0 -4.41886 0 0 0 
11.9071 -2.82794e-05 0 0 -11.9071 0 0 0 
6.64048 -1.57712e-05 -1.7978e-06 1.02283e-06 -6.64048 0 0 10734.2 
0 0 0 0 0 0 0 0 
0 0 0 0 0 0 0 0 
0 0 0 0 0 0 0 0 
0 0 0 0 0 0 0 0 
0 0 0 0 0 0 0 0 
0 0 0 0 0 0 0 0 
25.6542 -6.09289e-05 0 0 -25.6542 0 0 0 
0 0 0 0 0 0 0 0 
0 0 0 0 0 0 0 0 
5.04629 -1.23004e-05 -2.93842e-06 3.03113e-06 -5.04629 0 0 8423.79 
0 0 0 0 0 0 0 0 
0 0 0 0 0 0 0 0 
12.9205 -3.06863e-05 -2.88295e-08 -9.70824e-08 -12.9205 0 0 3465.19 
0 0 0 0 0 0 0 0 
0 0 0 0 0 0 0 0 
12.6672 -3.00847e-05 0 0 -12.6672 0 0 0 
0 0 0 0 0 0 0 0 
0 0 0 0 0 0 0 0 
0 0 0 0 0 0 0 0 
19.0095 -4.63356e-05 0 0 -19.0095 0 0 0 
8.49038 -2.01648e-05 0 0 -8.49038 0 0 0 
0 0 0 0 0 0 0 0 
0 0 0 0 0 0 0 0 
0 0 0 0 0 0 0 0 
12.0043 -2.85102e-05 0 0 -12.0043 0 0 0 
0 0 0 0 0 0 0 0 
11.6705 -2.77175e-05 0 0 -11.6705 0 0 0 
0 0 0 0 0 0 0 0 
0 0 0 0 0 0 0 0 
0 0 0 0 0 0 0 0 
0 0 0 0 0 0 0 0 
29.7734 -7.07118e-05 -1.02471e-06 1.68527e-06 -29.7734 0 0 11217.3 
6.97178 -1.6558e-05 -1.67337e-06 -9.45158e-07 -6.97178 0 0 12569 
0 0 0 0 0 0 0 0 
0 0 0 0 0 0 0 0 
0 0 0 0 0 0 0 0 
10.6233 -2.52303e-05 0 0 -10.6233 0 0 0 
12.753 -3.02884e-05 0 0 -12.753 0 0 0 
12.4975 -2.96817e-05 0 0 -12.4975 0 0 0 
0 0 0 0 0 0 0 0 
243.47 -3.04339e-05 0 0 -243.47 0 0 0 
0 0 0 0 0 0 0 0 
0 0 0 0 0 0 0 0 
12.3077 -2.92308e-05 0 0 -12.3077 0 0 0 
0 0 0 0 0 0 0 0 
31.3512 -7.44593e-05 -6.24948e-07 -1.34316e-06 -31.3512 0 0 8351.57 
0 0 0 0 0 0 0 0 
0 0 0 0 0 0 0 0 
0 0 0 0 0 0 0 0 
0 0 0 0 0 0 0 0 
11.9063 -2.82775e-05 0 0 -11.9063 0 0 0 
6.74323 -1.60152e-05 4.48082e-07 9.18552e-07 -6.74323 0 0 11087 
0 0 0 0 0 0 0 0 
0 0 0 0 0 0 0 0 
8.21938 -1.95211e-05 0 0 -8.21938 0 0 0 
36.7517 -8.72855e-05 0 0 -36.7517 0 0 0 
0 0 0 0 0 0 0 0 
0 0 0 0 0 0 0 0 
0 0 0 0 0 0 0 0 
0 0 0 0 0 0 0 0 
4.18045 -9.92854e-06 -6.36684e-07 1.32958e-06 -4.18045 0 0 6831.55 
0 0 0 0 0 0 0 0 
0 0 0 0 0 0 0 0 
0 0 0 0 0 0 0 0 
0 0 0 0 0 0 0 0 
12.0534 -2.86268e-05 0 0 -12.0534 0 0 0 
0 0 0 0 0 0 0 0 
0 0 0 0 0 0 0 0 
143.119 -1.789e-05 -6.94437e-07 -1.22987e-06 -143.119 0 0 233411 
0 0 0 0 0 0 0 0 
7.07464 -1.68023e-05 -6.00952e-07 1.01777e-06 -7.07464 0 0 10836.6 
0 0 0 0 0 0 0 0 
0 0 0 0 0 0 0 0 
11.8759 -2.82053e-05 0 0 -11.8759 0 0 0 
0 0 0 0 0 0 0 0 
0 0 0 0 0 0 0 0 
8.59015 -2.04016e-05 0 0 -8.59015 0 0 0 
8.47074 -2.0118e-05 0 0 -8.47074 0 0 0 
0 0 0 0 0 0 0 0 
0 0 0 0 0 0 0 0 
0 0 0 0 0 0 0 0 
0 0 0 0 0 0 0 0 
11.4572 -2.72109e-05 0 0 -11.4572 0 0 0 
23.585 -5.60144e-05 0 0 -23.585 0 0 0 
0 0 0 0 0 0 0 0 
0 0 0 0 0 0 0 0 
11.7106 -2.78128e-05 0 0 -11.7106 0 0 0 
32.5803 -7.73784e-05 8.99283e-07 -1.52268e-06 -32.5803 0 0 11232.5 
0 0 0 0 0 0 0 0 
0 0 0 0 0 0 0 0 
12.9124 -3.06671e-05 0 0 -12.9124 0 0 0 
11.7643 -2.79402e-05 0 0 -11.7643 0 0 0 
0 0 0 0 0 0 0 0 
0 0 0 0 0 0 0 0 
0 0 0 0 0 0 0 0 
13.7047 -3.25487e-05 -2.41366e-06 -1.23313e-06 -13.7047 0 0 16374 
0 0 0 0 0 0 0 0 
0 0 0 0 0 0 0 0 
12.5447 -3.0578e-05 0 0 -12.5447 0 0 0 
0 0 0 0 0 0 0 0 
9.32891 -0.00459849 5.13108e-06 -9.18597e-06 -9.32891 0 0 1721.31 
8.96319 -0.000436956 0 0 -8.96319 0 0 0 
11.8705 -2.96764e-05 0 0 -11.8705 0 0 0 
9.22264 -0.000438076 -4.47642e-08 3.70337e-06 -9.22264 0 0 1101.22 
10.7961 -2.69904e-05 0 0 -10.7961 0 0 0 
5.77455 -0.000274291 3.43074e-06 -3.4911e-06 -5.77455 0 0 949.831 
6.92076 -1.73019e-05 0 0 -6.92076 0 0 6.58666e-12 
9.0201 -0.000428455 1.73333e-06 1.40152e-06 -9.0201 0 0 1084.07 
24.1798 -6.04496e-05 0 0 -24.1798 0 0 0 
9.77861 -0.000464484 2.5499e-06 1.06354e-06 -9.77861 0 0 520.463 
5.16995 -1.29249e-05 0 0 -5.16995 0 0 0 
11.4562 -0.000544168 3.99791e-06 5.03176e-06 -11.4562 0 0 3210.01 
0 0 0 0 0 0 0 0 
7.14837 -0.000339548 1.07163e-06 7.61012e-07 -7.14837 0 0 482.773 
22.9057 -5.72645e-05 0 0 -22.9057 0 0 2.08577e-11 
6.23902 -0.000304152 3.42481e-06 -8.05665e-07 -6.23902 0 0 2491.79 
8.74 -0.00381379 -1.44441e-05 -6.03174e-06 -8.74 0 0 1319.53 
7.68839 -0.000535964 -4.34323e-06 3.3782e-06 -7.68839 0 0 594.311 
10.3574 -0.00089074 -6.80248e-06 -2.50832e-07 -10.3574 0 0 1955.97 
11.2836 -0.000970384 -5.70341e-07 -2.69746e-06 -11.2836 0 0 1386.32 
8.03755 -0.000391831 -3.81126e-06 -1.68199e-07 -8.03755 0 0 1738.12 
0 0 0 0 0 0 0 0 
11.8924 -0.00056489 -6.96036e-07 6.0708e-07 -11.8924 0 0 2327.3 
4.11978 -1.02995e-05 0 0 -4.11978 0 0 0 
6.60511 -0.000313743 8.07424e-07 1.72478e-06 -6.60511 0 0 1182.83 
6.3945 -1.59863e-05 9.33228e-07 -1.11221e-06 -6.3945 0 0 6373.21 
11.1837 -0.000531225 4.84662e-07 -2.54989e-06 -11.1837 0 0 1243.58 
22.3715 -5.59287e-05 0 0 -22.3715 0 0 0 
7.43261 -0.000353049 8.80517e-07 1.90724e-06 -7.43261 0 0 545.459 
2.48803 -6.22009e-06 0 0 -2.48803 0 0 0 
14.9714 -0.000711141 1.1669e-06 -3.15418e-06 -14.9714 0 0 1561.52 
11.9566 -2.98913e-05 0 0 -11.9566 0 0 0 
7.48618 -0.000355593 -3.235e-06 5.95864e-06 -7.48618 0 0 1777.43 
9.95905 -2.48978e-05 0 0 -9.95905 0 0 8.78219e-12 
6.88998 -0.000335887 1.02288e-06 1.60892e-06 -6.88998 0 0 1065.38 
10.2787 -0.000501084 1.20334e-05 -4.05917e-06 -10.2787 0 0 1218.93 
10.1715 -0.00501382 1.19303e-05 7.06153e-06 -10.1715 0 0 2345.41 
10.1845 -0.000875861 4.50459e-06 -9.81004e-08 -10.1845 0 0 1263.04 
9.45494 -0.000813126 8.70803e-07 1.6715e-06 -9.45494 0 0 1126.68 
6.93371 -9.11239e-05 2.14976e-06 2.43382e-07 -6.93371 0 0 5664.37 
5.80022 -0.000282761 2.07925e-06 -5.66838e-07 -5.80022 0 0 1606.8 
0 0 0 0 0 0 0 0 
5.36661 -0.000254914 -2.40162e-06 -1.62666e-06 -5.36661 0 0 3179.02 
6.38476 -1.59619e-05 -1.26695e-06 1.85041e-07 -6.38476 0 0 10047.8 
7.8379 -0.0003723 -5.80926e-07 2.30987e-06 -7.8379 0 0 3311.74 
0 0 0 0 0 0 0 0 
6.35102 -0.000301673 1.12326e-09 -2.56245e-06 -6.35102 0 0 690.258 
13.0775 -3.26937e-05 0 0 -13.0775 0 0 0 
15.3839 -0.000730737 -1.7421e-06 -9.32908e-07 -15.3839 0 0 483.201 
10.9379 -2.73448e-05 0 0 -10.9379 0 0 8.78222e-12 
12.6358 -0.000600201 -5.57273e-06 5.2931e-07 -12.6358 0 0 3890.1 
0 0 0 0 0 0 0 0 
10.5822 -0.000502653 1.83263e-08 -1.74977e-06 -10.5822 0 0 3126.44 
0 0 0 0 0 0 0 0 
7.12212 -0.000347203 -5.24827e-06 3.54589e-06 -7.12212 0 0 802.613 
8.57197 -0.00422537 -6.23273e-06 9.2598e-06 -8.57197 0 0 1467.13 
0 0 0 0 0 0 0 0 
9.52758 -0.00045256 -7.39419e-07 -1.27928e-08 -9.52758 0 0 1027.82 
11.3639 -2.84098e-05 0 0 -11.3639 0 0 0 
8.78597 -0.000417334 -5.18399e-06 1.5111e-06 -8.78597 0 0 906.52 
16.6586 -4.16467e-05 7.1493e-07 2.63024e-07 -16.6586 0 0 9322.24 
9.11204 -0.000432822 2.30467e-06 -2.62928e-06 -9.11204 0 0 2790.85 
0 0 0 0 0 0 0 0 
12.1172 -0.000575568 -8.11829e-06 -4.4098e-06 -12.1172 0 0 3100.1 
23.1126 -5.77815e-05 0 0 -23.1126 0 0 0 
6.24896 -0.000296826 8.05826e-06 2.48349e-07 -6.24896 0 0 2128.8 
6.4516 -1.6129e-05 -1.76534e-06 -9.07933e-07 -6.4516 0 0 11768.7 
6.05022 -0.000287386 1.8042e-06 1.37455e-06 -6.05022 0 0 979.581 
9.21599 -2.30401e-05 0 0 -9.21599 0 0 7.68441e-12 
6.43027 -0.000313476 2.19895e-06 3.31524e-07 -6.43027 0 0 1033.88 
0.0489106 -1.98545e-05 2.86127e-05 -1.94544e-07 0 0.0489106 0 57.3362 
0.0838583 -1.35472e-05 2.45286e-05 -1.1514e-06 0 0.0838583 0 95.878 
0.00993861 0 2.90704e-06 0 0 0.00993861 0 0 
0 0 0 0 0 0 0 0 
0 0 0 0 0 0 0 0 
0 0 0 0 0 0 0 0 
0 0 0 0 0 0 0 0 
0 0 0 0 0 0 0 0 
0 0 0 0 0 0 0 0 
0 0 0 0 0 0 0 0 
0 0 0 0 0 0 0 0 
0 0 0 0 0 0 0 0 
0 0 0 0 0 0 0 0 
0 0 0 0 0 0 0 0 
0 0 0 0 0 0 0 0 
0 0 0 0 0 0 0 0 
0 0 0 0 0 0 0 0 
0 0 0 0 0 0 0 0 
0 0 0 0 0 0 0 0 
0 0 0 0 0 0 0 0 
0 0 0 0 0 0 0 0 
0 0 0 0 0 0 0 0 
0 0 0 0 0 0 0 0 
0 0 0 0 0 0 0 0 
0 0 0 0 0 0 0 0 
0 0 0 0 0 0 0 0 
0 0 0 0 0 0 0 0 
0 0 0 0 0 0 0 0 
6.34833 1.50773e-05 -4.74096e-07 -1.07643e-06 6.34833 0 0 9087.86 
0 0 0 0 0 0 0 0 
0 0 0 0 0 0 0 0 
0 0 0 0 0 0 0 0 
0 0 0 0 0 0 0 0 
0 0 0 0 0 0 0 0 
0 0 0 0 0 0 0 0 
0 0 0 0 0 0 0 0 
0 0 0 0 0 0 0 0 
0 0 0 0 0 0 0 0 
5.08463 1.30293e-05 0 0 5.08463 0 0 0 
0 0 0 0 0 0 0 0 
0 0 0 0 0 0 0 0 
0 0 0 0 0 0 0 0 
0 0 0 0 0 0 0 0 
0 0 0 0 0 0 0 0 
0 0 0 0 0 0 0 0 
0 0 0 0 0 0 0 0 
0 0 0 0 0 0 0 0 
0 0 0 0 0 0 0 0 
0 0 0 0 0 0 0 0 
0 0 0 0 0 0 0 0 
0 0 0 0 0 0 0 0 
0 0 0 0 0 0 0 0 
0 0 0 0 0 0 0 0 
0 0 0 0 0 0 0 0 
0 0 0 0 0 0 0 0 
0 0 0 0 0 0 0 0 
0 0 0 0 0 0 0 0 
0 0 0 0 0 0 0 0 
0 0 0 0 0 0 0 0 
0 0 0 0 0 0 0 0 
0 0 0 0 0 0 0 0 
0 0 0 0 0 0 0 0 
0 0 0 0 0 0 0 0 
0 0 0 0 0 0 0 0 
0 0 0 0 0 0 0 0 
0 0 0 0 0 0 0 0 
0 0 0 0 0 0 0 0 
0 0 0 0 0 0 0 0 
0 0 0 0 0 0 0 0 
0 0 0 0 0 0 0 0 
0 0 0 0 0 0 0 0 
0 0 0 0 0 0 0 0 
0 0 0 0 0 0 0 0 
0 0 0 0 0 0 0 0 
0 0 0 0 0 0 0 0 
0 0 0 0 0 0 0 0 
0 0 0 0 0 0 0 0 
0 0 0 0 0 0 0 0 
0 0 0 0 0 0 0 0 
0 0 0 0 0 0 0 0 
0 0 0 0 0 0 0 0 
0 0 0 0 0 0 0 0 
0 0 0 0 0 0 0 0 
0 0 0 0 0 0 0 0 
0 0 0 0 0 0 0 0 
35.2771 4.40964e-06 0 0 35.2771 0 0 0 
0 0 0 0 0 0 0 0 
0 0 0 0 0 0 0 0 
7.40765 1.75932e-05 0 0 7.40765 0 0 0 
0 0 0 0 0 0 0 0 
0 0 0 0 0 0 0 0 
0 0 0 0 0 0 0 0 
0 0 0 0 0 0 0 0 
0 0 0 0 0 0 0 0 
2.15717 5.12328e-06 0 0 2.15717 0 0 0 
0 0 0 0 0 0 0 0 
0 0 0 0 0 0 0 0 
0 0 0 0 0 0 0 0 
0 0 0 0 0 0 0 0 
0 0 0 0 0 0 0 0 
0 0 0 0 0 0 0 0 
0 0 0 0 0 0 0 0 
0 0 0 0 0 0 0 0 
0 0 0 0 0 0 0 0 
0 0 0 0 0 0 0 0 
0 0 0 0 0 0 0 0 
0 0 0 0 0 0 0 0 
0 0 0 0 0 0 0 0 
0 0 0 0 0 0 0 0 
0 0 0 0 0 0 0 0 
0 0 0 0 0 0 0 0 
0 0 0 0 0 0 0 0 
0 0 0 0 0 0 0 0 
0 0 0 0 0 0 0 0 
0 0 0 0 0 0 0 0 
0 0 0 0 0 0 0 0 
0 0 0 0 0 0 0 0 
0 0 0 0 0 0 0 0 
0 0 0 0 0 0 0 0 
0 0 0 0 0 0 0 0 
0 0 0 0 0 0 0 0 
0 0 0 0 0 0 0 0 
0 0 0 0 0 0 0 0 
0 0 0 0 0 0 0 0 
0 0 0 0 0 0 0 0 
0 0 0 0 0 0 0 0 
0 0 0 0 0 0 0 0 
0 0 0 0 0 0 0 0 
0 0 0 0 0 0 0 0 
0 0 0 0 0 0 0 0 
0 0 0 0 0 0 0 0 
0 0 0 0 0 0 0 0 
0 0 0 0 0 0 0 0 
0 0 0 0 0 0 0 0 
0 0 0 0 0 0 0 0 
0 0 0 0 0 0 0 0 
0 0 0 0 0 0 0 0 
11.6982 2.77832e-05 0 0 11.6982 0 0 0 
0 0 0 0 0 0 0 0 
0 0 0 0 0 0 0 0 
0 0 0 0 0 0 0 0 
0 0 0 0 0 0 0 0 
0 0 0 0 0 0 0 0 
0 0 0 0 0 0 0 0 
0 0 0 0 0 0 0 0 
0 0 0 0 0 0 0 0 
0 0 0 0 0 0 0 0 
0 0 0 0 0 0 0 0 
0 0 0 0 0 0 0 0 
0 0 0 0 0 0 0 0 
0 0 0 0 0 0 0 0 
0 0 0 0 0 0 0 0 
0 0 0 0 0 0 0 0 
0 0 0 0 0 0 0 0 
0 0 0 0 0 0 0 0 
0 0 0 0 0 0 0 0 
0 0 0 0 0 0 0 0 
0 0 0 0 0 0 0 0 
0 0 0 0 0 0 0 0 
0 0 0 0 0 0 0 0 
0 0 0 0 0 0 0 0 
0 0 0 0 0 0 0 0 
0 0 0 0 0 0 0 0 
0 0 0 0 0 0 0 0 
0 0 0 0 0 0 0 0 
0 0 0 0 0 0 0 0 
0 0 0 0 0 0 0 0 
0 0 0 0 0 0 0 0 
0 0 0 0 0 0 0 0 
0 0 0 0 0 0 0 0 
0 0 0 0 0 0 0 0 
0 0 0 0 0 0 0 0 
0 0 0 0 0 0 0 0 
0 0 0 0 0 0 0 0 
0 0 0 0 0 0 0 0 
0 0 0 0 0 0 0 0 
0 0 0 0 0 0 0 0 
0 0 0 0 0 0 0 0 
0 0 0 0 0 0 0 0 
0 0 0 0 0 0 0 0 
0 0 0 0 0 0 0 0 
0 0 0 0 0 0 0 0 
0 0 0 0 0 0 0 0 
0 0 0 0 0 0 0 0 
0 0 0 0 0 0 0 0 
0 0 0 0 0 0 0 0 
0 0 0 0 0 0 0 0 
0 0 0 0 0 0 0 0 
0 0 0 0 0 0 0 0 
0 0 0 0 0 0 0 0 
0 0 0 0 0 0 0 0 
0 0 0 0 0 0 0 0 
0 0 0 0 0 0 0 0 
0 0 0 0 0 0 0 0 
0 0 0 0 0 0 0 0 
0 0 0 0 0 0 0 0 
0 0 0 0 0 0 0 0 
0 0 0 0 0 0 0 0 
0 0 0 0 0 0 0 0 
0 0 0 0 0 0 0 0 
0 0 0 0 0 0 0 0 
0 0 0 0 0 0 0 0 
0 0 0 0 0 0 0 0 
0 0 0 0 0 0 0 0 
0 0 0 0 0 0 0 0 
0 0 0 0 0 0 0 0 
0 0 0 0 0 0 0 0 
0 0 0 0 0 0 0 0 
0 0 0 0 0 0 0 0 
0 0 0 0 0 0 0 0 
0 0 0 0 0 0 0 0 
0 0 0 0 0 0 0 0 
0 0 0 0 0 0 0 0 
0 0 0 0 0 0 0 0 
0 0 0 0 0 0 0 0 
0 0 0 0 0 0 0 0 
0 0 0 0 0 0 0 0 
0 0 0 0 0 0 0 0 
0 0 0 0 0 0 0 0 
0 0 0 0 0 0 0 0 
0 0 0 0 0 0 0 0 
0 0 0 0 0 0 0 0 
0 0 0 0 0 0 0 0 
0 0 0 0 0 0 0 0 
0 0 0 0 0 0 0 0 
0 0 0 0 0 0 0 0 
0 0 0 0 0 0 0 0 
0 0 0 0 0 0 0 0 
0 0 0 0 0 0 0 0 
0 0 0 0 0 0 0 0 
0 0 0 0 0 0 0 0 
2.07551 5.05907e-06 0 0 2.07551 0 0 0 
0 0 0 0 0 0 0 0 
0 0 0 0 0 0 0 0 
0 0 0 0 0 0 0 0 
0 0 0 0 0 0 0 0 
0 0 0 0 0 0 0 0 
0 0 0 0 0 0 0 0 
0 0 0 0 0 0 0 0 
0 0 0 0 0 0 0 0 
0 0 0 0 0 0 0 0 
0 0 0 0 0 0 0 0 
0 0 0 0 0 0 0 0 
0 0 0 0 0 0 0 0 
0 0 0 0 0 0 0 0 
0 0 0 0 0 0 0 0 
0 0 0 0 0 0 0 0 
0 0 0 0 0 0 0 0 
0 0 0 0 0 0 0 0 
0 0 0 0 0 0 0 0 
0 0 0 0 0 0 0 0 
0 0 0 0 0 0 0 0 
0 0 0 0 0 0 0 0 
0 0 0 0 0 0 0 0 
0 0 0 0 0 0 0 0 
0 0 0 0 0 0 0 0 
0 0 0 0 0 0 0 0 
0 0 0 0 0 0 0 0 
0 0 0 0 0 0 0 0 
0 0 0 0 0 0 0 0 
0 0 0 0 0 0 0 0 
2.21138 5.39024e-06 0 0 2.21138 0 0 0 
0 0 0 0 0 0 0 0 
0 0 0 0 0 0 0 0 
0 0 0 0 0 0 0 0 
0 0 0 0 0 0 0 0 
0 0 0 0 0 0 0 0 
0 0 0 0 0 0 0 0 
0 0 0 0 0 0 0 0 
0 0 0 0 0 0 0 0 
0 0 0 0 0 0 0 0 
0 0 0 0 0 0 0 0 
0 0 0 0 0 0 0 0 
0 0 0 0 0 0 0 0 
0 0 0 0 0 0 0 0 
0 0 0 0 0 0 0 0 
0 0 0 0 0 0 0 0 
0 0 0 0 0 0 0 0 
0 0 0 0 0 0 0 0 
0 0 0 0 0 0 0 0 
0 0 0 0 0 0 0 0 
0 0 0 0 0 0 0 0 
0 0 0 0 0 0 0 0 
0 0 0 0 0 0 0 0 
0 0 0 0 0 0 0 0 
0 0 0 0 0 0 0 0 
0 0 0 0 0 0 0 0 
0 0 0 0 0 0 0 0 
0 0 0 0 0 0 0 0 
0 0 0 0 0 0 0 0 
0 0 0 0 0 0 0 0 
0 0 0 0 0 0 0 0 
0 0 0 0 0 0 0 0 
0 0 0 0 0 0 0 0 
0 0 0 0 0 0 0 0 
3.30778 7.85602e-06 5.1728e-06 1.39085e-06 3.30778 0 0 3738.32 
0 0 0 0 0 0 0 0 
0.365839 8.91733e-07 0 0 0.365839 0 0 0 
0 0 0 0 0 0 0 0 
0 0 0 0 0 0 0 0 
0 0 0 0 0 0 0 0 
0 0 0 0 0 0 0 0 
0 0 0 0 0 0 0 0 
0 0 0 0 0 0 0 0 
0 0 0 0 0 0 0 0 
0 0 0 0 0 0 0 0 
0 0 0 0 0 0 0 0 
0 0 0 0 0 0 0 0 
0 0 0 0 0 0 0 0 
0 0 0 0 0 0 0 0 
0 0 0 0 0 0 0 0 
0 0 0 0 0 0 0 0 
0 0 0 0 0 0 0 0 
0 0 0 0 0 0 0 0 
0 0 0 0 0 0 0 0 
0 0 0 0 0 0 0 0 
0 0 0 0 0 0 0 0 
0 0 0 0 0 0 0 0 
0 0 0 0 0 0 0 0 
0 0 0 0 0 0 0 0 
0 0 0 0 0 0 0 0 
0 0 0 0 0 0 0 0 
12.3496 3.01021e-05 0 0 12.3496 0 0 0 
0 0 0 0 0 0 0 0 
0 0 0 0 0 0 0 0 
0 0 0 0 0 0 0 0 
0 0 0 0 0 0 0 0 
0 0 0 0 0 0 0 0 
0 0 0 0 0 0 0 0 
0.0729554 -2.60914e-06 -4.26789e-05 -3.64136e-06 0 -0.0729554 0 10.143 
0.0459516 0 -2.68817e-05 0 0 -0.0459516 0 0 
2.40991 -0.000309986 0.000279569 -0.000293744 -1.20495 1.47576 -1.47576 624.986 
2.12654 -0.000326267 0.000235706 -0.000227149 -1.06327 1.30223 -1.30224 1112.05 
0.0479173 -0.00042363 0.000428957 0.000445215 0 0.0338826 0.0338826 57.3143 
0.0369295 -0.000830229 0.000742069 0.00075421 8.76033e-10 0.0261131 0.0261131 52.2134 
0.0305816 -0.000179058 0.000130117 0.000138116 0 0.0216245 0.0216245 53.7878 
0.046444 -0.000348202 0.000686808 -5.37655e-06 0 0.046444 0 45.3111 
0.0336272 -0.000323883 0.000497274 -3.41765e-06 0 0.0336272 0 43.0147 
0.0364954 -0.000231138 -8.51676e-06 0.000539689 0 0 0.0364954 29.0326 
0.0330823 -0.000441388 2.86036e-06 0.000489217 0 0 0.0330823 55.7387 
0.045648 -0.000943339 0.00089808 0.000951451 0 0.032278 0.032278 58.6829 
0.0379002 -0.000247637 0.000345849 0.000345577 -5.53286e-10 0.0267995 0.0267995 34.681 
0.0335728 -0.000121224 0.000144875 0.000149594 0 0.0237395 0.0237395 37.8724 
2.1162 -0.000279386 -0.000249279 0.000248299 -1.0581 -1.2959 1.2959 655.955 
2.60214 -0.000355044 -0.000299672 0.000302783 -1.30107 -1.59347 1.59349 1017.43 
0.0371279 -0.000690243 -0.000747725 -0.000756596 0 -0.0262534 -0.0262534 42.3265 
0.0321716 -0.000296343 -0.00029452 -0.000292398 1.69494e-09 -0.0227488 -0.0227488 39.0939 
0.0370154 -0.000120886 -0.000159407 -0.000165257 0 -0.0261738 -0.0261738 32.0746 
0.0452512 -0.000319826 -0.000669169 1.75518e-05 0 -0.0452512 0 39.9423 
0.0326526 -0.00043207 -0.000482862 1.6034e-05 0 -0.0326526 0 53.7575 
0.0337302 -0.000323763 -2.40307e-05 -0.000498799 0 0 -0.0337302 39.3007 
0.0380348 -0.000416979 -1.58306e-06 -0.000562454 0 0 -0.0380348 50.7531 
0.0395878 -0.000285034 -0.000361905 -0.00036031 0 -0.0279928 -0.0279928 39.4852 
0.0401519 -0.000658656 -0.0008085 -0.000818345 -2.63925e-10 -0.0283917 -0.0283917 41.3637 
0.038479 -0.000186077 -0.000164211 -0.000173291 0 -0.0272088 -0.0272088 55.0402 
0.206141 -4.13614e-05 5.49688e-06 -0.000120593 0 0 -0.206141 165.818 
0.189621 -2.05958e-05 -1.33759e-06 -0.000110928 0 0 -0.189621 58.645 
0.218507 -1.68322e-05 -0.000124549 -4.55449e-06 0 -0.218507 0 51.7292 
0.268762 -2.9207e-05 -0.000153194 -7.9599e-07 0 -0.268762 0 74.8237 
0.221088 -2.08514e-05 -3.9596e-06 0.000129336 0 0 0.221088 68.9857 
0.188509 -2.52998e-05 -1.18548e-06 0.000110277 0 0 0.188509 115.043 
0.266534 -3.19814e-05 0.000151924 4.56655e-06 0 0.266534 0 99.6679 
0.241717 -3.27721e-05 0.000137779 -6.67291e-06 0 0.241717 0 94.0218 
0.119984 3.3624e-06 6.8391e-05 -7.93313e-06 0 0.119984 0 10.7182 
0.180788 -2.11863e-05 0.000103049 -8.83699e-07 0 0.180788 0 71.869 
0.0799208 -1.46717e-05 -7.5756e-06 -4.55549e-05 0 0 -0.0799208 65.1018 
0.0718493 -2.15573e-05 3.06822e-06 -4.09541e-05 0 0 -0.0718493 82.143 
0.0661254 -3.23465e-05 -3.76915e-05 5.79868e-06 0 -0.0661254 0 85.8976 
0.148558 -5.07612e-06 -8.46781e-05 -6.59481e-06 0 -0.148558 0 71.0299 
0.124022 -3.77067e-06 -8.85625e-06 7.06925e-05 0 -2.43161e-08 0.124022 15.6868 
0.0511138 -2.58895e-05 -3.33907e-06 2.91349e-05 0 -1.00215e-08 0.0511138 99.4278 
0.191217 -2.02599e-05 0.000108993 1.82064e-06 0 0.191217 0 50.358 
0.12879 -2.60502e-05 7.34101e-05 -3.46675e-06 0 0.12879 0 116.058 
0.191343 -7.49782e-05 -1.84717e-06 -0.000109066 0 0 -0.191343 229.232 
0.106425 4.30867e-06 2.33154e-06 -6.06621e-05 0 0 -0.106425 1.85279 
0.12782 -3.27935e-05 -7.28573e-05 7.50663e-06 0 -0.12782 0 153.187 
0.172806 -6.20375e-05 -9.84994e-05 3.22204e-07 0 -0.172806 0 201.921 
0.169026 -8.39282e-06 2.18643e-06 9.6345e-05 0 0 0.169026 24.0649 
0.126119 -4.31829e-06 -5.42429e-06 7.18876e-05 0 0 0.126119 21.7807 
0.163167 -1.81215e-05 -9.30053e-05 5.45514e-08 0 -0.163167 0 65.3492 
0.159569 -4.68283e-05 -9.09543e-05 3.65868e-06 0 -0.159569 0 149.25 
0.274471 -3.13986e-05 -2.21078e-06 0.000156448 0 0 0.274471 92.1794 
0.202436 -3.38629e-05 1.77171e-06 0.000115389 0 0 0.202436 99.3163 
0.142358 1.40002e-06 8.1144e-05 -3.40104e-07 0 0.142358 0 -1.98243 
0.158933 -4.73577e-05 9.0592e-05 -6.51049e-06 0 0.158933 0 157.744 
0.175746 -3.28541e-05 1.0197e-05 -0.000100176 0 0 -0.175746 120.483 
0.304736 -5.16992e-05 -5.96223e-06 -0.0001737 0 0 -0.304736 131.518 
0.195138 -2.95616e-05 0.000111229 -4.40274e-06 0 0.195138 0 102.964 
0.289224 -1.76815e-05 0.000164858 2.47779e-06 0 0.289224 0 44.1682 
0.177262 -5.15875e-05 1.46134e-05 -0.000101039 0 0 -0.177262 142.107 
0.197881 -5.10941e-06 9.77061e-06 -0.000112792 0 0 -0.197881 5.0925 
0.306978 -7.94006e-06 -0.000174977 -6.14852e-06 0 -0.306978 0 33.7087 
0.222904 -4.26604e-05 -0.000127055 7.56291e-06 0 -0.222904 0 102.13 
0.196397 -1.40229e-05 5.43366e-06 0.000111947 0 0 0.196397 44.5927 
0.178275 -2.95832e-05 -1.00005e-06 0.000101617 0 0 0.178275 89.5444 
0.228827 -2.99517e-05 0.000130432 -1.82037e-08 0 0.228827 0 103.564 
0.21065 -3.13341e-05 0.00012007 8.2686e-06 0 0.21065 0 91.0485 
0.219809 -2.81743e-05 1.26217e-05 -0.000125291 0 0 -0.219809 124.228 
0.157048 -2.12492e-05 8.33097e-06 -8.95171e-05 0 0 -0.157048 90.3992 
0.250862 -8.25949e-06 -0.000142991 -1.04044e-05 0 -0.250862 0 73.3731 
0.25057 -1.50111e-05 -0.000142825 1.27408e-06 0 -0.25057 0 48.5006 
0.269871 -1.79191e-05 -4.32838e-07 0.000153827 0 0 0.269871 58.714 
0.166231 -9.11291e-07 9.34598e-07 9.47516e-05 0 0 0.166231 0.0206317 
0.186706 -3.53198e-05 1.14277e-05 -0.000106423 0 0 -0.186706 100.187 
0.0863444 -3.38774e-06 -5.4311e-07 -4.92163e-05 0 0 -0.0863444 -1.68797 
0.111715 -2.4763e-05 -6.36778e-05 6.62964e-07 0 -0.111715 0 60.7254 
0.117965 -2.38371e-06 -6.72402e-05 -3.22192e-07 0 -0.117965 0 -1.31726 
0.132331 -3.37137e-05 8.53596e-06 7.54285e-05 0 0 0.132331 117.84 
0.139913 -6.22798e-06 3.47371e-06 7.97506e-05 0 0 0.139913 47.3049 
0.100536 2.11807e-06 5.73053e-05 1.21739e-06 0 0.100536 0 -0.299116 
0.0968209 -1.44025e-05 5.51879e-05 1.34904e-06 0 0.0968209 0 50.8315 
0.212453 -4.5424e-05 0.000121098 -3.0473e-06 0 0.212453 0 109.191 
0.170463 -7.80583e-05 9.71637e-05 1.44501e-05 0 0.170463 0 211.385 
0.145999 1.19908e-07 2.88697e-06 -8.32192e-05 0 0 -0.145999 0.939633 
0.226329 1.15121e-07 -2.64454e-07 -0.000129008 0 0 -0.226329 0.460001 
0.257658 -1.11958e-05 -0.000146865 2.13131e-06 0 -0.257658 0 48.432 
0.104868 -3.8415e-05 -5.97746e-05 2.95109e-06 0 -0.104868 0 99.0553 
0.204862 -3.42327e-05 -6.40418e-06 0.000116771 0 0 0.204862 122.142 
0.199761 -2.96072e-05 2.38704e-06 0.000113864 0 0 0.199761 76.252 
0.269923 -2.35461e-05 -1.53389e-05 -0.000153856 0 0 -0.269923 85.8154 
0.187343 -2.38352e-05 1.29196e-06 -0.000106786 0 0 -0.187343 72.6642 
0.370529 -2.89838e-05 -0.000211201 7.33989e-06 0 -0.370529 0 82.4986 
0.140572 -2.11541e-05 -8.01258e-05 4.67612e-06 0 -0.140572 0 61.3358 
0.26562 -1.10599e-07 3.01009e-06 0.000151403 0 0 0.26562 21.79 
0.151861 -3.16759e-05 5.789e-06 8.65609e-05 0 0 0.151861 95.9062 
0.308559 -4.17938e-05 0.000175879 -6.40192e-06 0 0.308559 6.04971e-08 132.659 
0.154569 -3.76419e-06 8.81045e-05 -4.45882e-06 0 0.154569 3.03053e-08 0.320539 
0.204746 -1.77673e-05 -7.32834e-06 -0.000116705 0 0 -0.204746 83.1308 
0.113502 -3.33004e-05 5.22361e-06 -6.4696e-05 0 0 -0.113502 96.2833 
0.202513 -1.94333e-05 -0.000115432 -5.44517e-06 0 -0.202513 -3.97075e-08 80.2414 
0.246543 -2.75859e-05 -0.000140529 3.14724e-06 0 -0.246543 -4.83406e-08 74.0854 
0.207512 -3.43967e-06 8.26381e-06 0.000118282 0 0 0.207512 15.0842 
0.138976 -8.91038e-06 3.4593e-07 7.92165e-05 0 0 0.138976 26.3567 
0.232189 -2.92368e-05 0.000132348 2.94967e-06 0 0.232189 0 79.2655 
0.250267 -1.76557e-05 0.000142652 2.40099e-06 0 0.250267 0 50.1981 
0.127184 -3.2825e-05 -4.07278e-06 7.44025e-05 0 0 0.127184 106.604 
0.137159 -8.07694e-06 -8.43176e-06 8.0238e-05 0 0 0.137159 25.9625 
0.31899 -3.0317e-05 0.000181825 -7.99754e-07 0 0.31899 0 85.5645 
0.206393 -8.37929e-06 0.000117644 -5.54764e-06 0 0.206393 0 20.6577 
0.166798 -1.47266e-05 1.02313e-05 -9.75769e-05 0 0 -0.166798 21.3417 
0.112648 -2.97938e-05 4.32068e-06 -6.5899e-05 0 0 -0.112648 125.936 
0.154388 -1.47078e-05 -8.80009e-05 -9.56385e-07 0 -0.154388 0 44.8656 
0.327477 -2.00634e-05 -0.000186662 4.21178e-06 0 -0.327477 0 89.5485 
0.194577 -3.84319e-05 -2.7416e-06 0.000113827 0 0 0.194577 117.523 
0.336968 -1.60254e-05 -1.82914e-06 0.000197126 0 0 0.336968 47.594 
0.152837 -2.19431e-05 8.71173e-05 -1.25212e-06 0 0.152837 0 48.5227 
0.257124 -5.08863e-05 0.000146561 -1.46535e-06 0 0.257124 0 149.908 
0.130917 -1.2361e-05 1.96766e-06 -7.65862e-05 0 0 -0.130917 35.027 
0.355757 -1.13766e-05 -1.32233e-06 -0.000208118 0 0 -0.355757 13.8348 
0.248871 -2.57409e-05 -0.000141857 -4.39621e-06 0 -0.248871 0 76.4909 
0.153281 -1.34666e-05 -8.737e-05 -2.89404e-06 0 -0.153281 0 54.6879 
0.104389 0 0 -5.95018e-05 0 0 -0.104389 0 
0.132258 -1.44284e-06 3.21461e-07 -7.53869e-05 0 0 -0.132258 -0.55166 
0.190755 -2.38027e-05 -0.00010873 -1.18668e-05 0 -0.190755 0 78.6791 
0.211364 -1.83808e-05 -0.000120477 1.84611e-06 0 -0.211364 0 72.3298 
0.0738856 -1.89331e-05 5.44589e-06 4.21148e-05 0 0 0.0738856 63.0806 
0.156585 -4.69393e-05 4.67826e-06 8.92532e-05 0 0 0.156585 140.593 
0.151867 -1.36059e-05 8.65642e-05 2.54125e-06 0 0.151867 0 41.8739 
0.212372 -3.34405e-05 0.000121052 -6.38095e-06 0 0.212372 0 106.35 
0.0424547 -1.65333e-05 1.03865e-06 2.4836e-05 0 0 0.0424547 68.2149 
0.0319849 -1.43608e-05 1.62068e-06 1.87112e-05 0 0 0.0319849 39.2965 
0.063283 -3.51995e-06 3.70205e-05 -9.1522e-07 0 0.063283 0 -1.71344 