ITEM: TIMESTEP
300
ITEM: NUMBER OF SURFS
6916
ITEM: BOX BOUNDS oo rr rr
-20 20
-20 20
-20 20
ITEM: SURFS f_save[1] f_save[2] f_save[3] f_save[4] f_save[5] f_save[6] f_save[7] f_save[8] 
3.00704e-18 -2.25622e-19 0 0 -3.00704e-18 0 0 0 
2.7337e-19 0 0 -8.20393e-19 0 0 -2.7337e-19 0 
1.67845e-21 1.25927e-22 0 0 1.67845e-21 0 0 2.8879e-34 
1.46802e-18 -3.57831e-20 0 0 -1.46802e-18 0 0 1.36048e-30 
1.42572e-18 -1.78215e-21 0 0 -1.42572e-18 0 0 0 
1.36254e-18 -1.70318e-21 0 0 -1.36254e-18 0 0 0 
1.60615e-18 -2.00769e-21 0 0 -1.60615e-18 0 0 0 
1.44161e-18 -3.51392e-20 0 0 -1.44161e-18 0 0 1.33008e-30 
1.45465e-18 -3.45478e-20 0 0 -1.45465e-18 0 0 0 
1.48277e-18 -3.52158e-20 0 0 -1.48277e-18 0 0 0 
1.523e-18 -3.61715e-20 0 0 -1.523e-18 0 0 0 
1.52462e-18 -3.62098e-20 0 0 -1.52462e-18 0 0 0 
1.49842e-18 -3.65239e-20 0 0 -1.49842e-18 0 0 0 
1.469e-18 -3.48889e-20 0 0 -1.469e-18 0 0 0 
1.47613e-18 -3.50581e-20 0 0 -1.47613e-18 0 0 0 
1.48338e-18 -3.61576e-20 0 0 -1.48338e-18 0 0 0 
1.48251e-18 -3.61362e-20 0 0 -1.48251e-18 0 0 1.36629e-30 
1.47773e-18 -3.50962e-20 0 0 -1.47773e-18 0 0 1.36393e-30 
1.46525e-18 -3.47998e-20 0 0 -1.46525e-18 0 0 0 
1.48757e-18 -3.62595e-20 0 0 -1.48757e-18 0 0 1.37179e-30 
1.47495e-18 -3.503e-20 0 0 -1.47495e-18 0 0 0 
1.50733e-18 -3.57991e-20 0 0 -1.50733e-18 0 0 0 
1.45687e-18 -3.55114e-20 0 0 -1.45687e-18 0 0 0 
1.4906e-18 -3.54018e-20 0 0 -1.4906e-18 0 0 0 
1.54449e-18 -3.66816e-20 0 0 -1.54449e-18 0 0 0 
1.50683e-18 -3.57872e-20 0 0 -1.50683e-18 0 0 0 
1.58372e-18 -1.97966e-21 0 0 -1.58372e-18 0 0 0 
1.44092e-18 -3.42219e-20 0 0 -1.44092e-18 0 0 0 
1.46828e-18 -3.48716e-20 0 0 -1.46828e-18 0 0 0 
1.59099e-18 -1.98874e-21 0 0 -1.59099e-18 0 0 0 
1.40347e-18 -3.33325e-20 0 0 -1.40347e-18 0 0 0 
1.43325e-18 -3.40397e-20 0 0 -1.43325e-18 0 0 0 
1.68426e-18 -2.10533e-21 0 0 -1.68426e-18 0 0 0 
1.52343e-18 -3.71337e-20 0 0 -1.52343e-18 0 0 1.40196e-30 
1.48025e-18 -3.51562e-20 0 0 -1.48025e-18 0 0 0 
1.60461e-18 -2.00577e-21 0 0 -1.60461e-18 0 0 0 
1.45141e-18 -3.5378e-20 0 0 -1.45141e-18 0 0 1.33301e-30 
1.43969e-18 -3.41927e-20 0 0 -1.43969e-18 0 0 0 
1.46783e-18 -1.83479e-21 0 0 -1.46783e-18 0 0 0 
1.42686e-18 -3.3888e-20 0 0 -1.42686e-18 0 0 0 
1.44598e-18 -3.52459e-20 0 0 -1.44598e-18 0 0 0 
1.68825e-18 -2.11032e-21 0 0 -1.68825e-18 0 0 0 
1.46006e-18 -3.46766e-20 0 0 -1.46006e-18 0 0 0 
1.44842e-18 -3.53052e-20 0 0 -1.44842e-18 0 0 0 
1.46421e-18 -1.83026e-21 0 0 -1.46421e-18 0 0 0 
1.50904e-18 -3.584e-20 0 0 -1.50904e-18 0 0 0 
1.46272e-18 -3.47396e-20 0 0 -1.46272e-18 0 0 0 
1.59282e-18 -1.99103e-21 0 0 -1.59282e-18 0 0 0 
1.34906e-18 -1.68634e-21 0 0 -1.34906e-18 0 0 0 
1.34824e-18 -1.6853e-21 0 0 -1.34824e-18 0 0 0 
1.45955e-18 -3.46645e-20 0 0 -1.45955e-18 0 0 1.3485e-30 
1.48821e-18 -3.53451e-20 0 0 -1.48821e-18 0 0 0 
1.46049e-18 -3.46867e-20 0 0 -1.46049e-18 0 0 1.34399e-30 
1.69883e-18 -2.12354e-21 0 0 -1.69883e-18 0 0 0 
1.48467e-18 -3.52608e-20 0 0 -1.48467e-18 0 0 0 
1.53788e-18 -3.65247e-20 0 0 -1.53788e-18 0 0 0 
1.56048e-18 -3.70614e-20 0 0 -1.56048e-18 0 0 0 
1.55347e-18 -1.94184e-21 0 0 -1.55347e-18 0 0 0 
1.51325e-18 -3.59397e-20 0 0 -1.51325e-18 0 0 0 
1.49057e-18 -3.5401e-20 0 0 -1.49057e-18 0 0 0 
1.51298e-18 -3.59332e-20 0 0 -1.51298e-18 0 0 0 
1.72937e-18 -2.16173e-21 0 0 -1.72937e-18 0 0 0 
1.49015e-18 -3.53913e-20 0 0 -1.49015e-18 0 0 0 
1.42954e-18 -3.48451e-20 0 0 -1.42954e-18 0 0 1.32089e-30 
1.49688e-18 -1.87111e-21 0 0 -1.49688e-18 0 0 0 
1.41264e-18 -3.35504e-20 0 0 -1.41264e-18 0 0 0 
1.50344e-18 -3.57067e-20 0 0 -1.50344e-18 0 0 0 
1.6603e-18 -2.07538e-21 0 0 -1.6603e-18 0 0 0 
1.47054e-18 -3.49255e-20 0 0 -1.47054e-18 0 0 0 
1.43178e-18 -3.40048e-20 0 0 -1.43178e-18 0 0 0 
1.47144e-18 -1.8393e-21 0 0 -1.47144e-18 0 0 0 
1.47098e-18 -3.49358e-20 0 0 -1.47098e-18 0 0 0 
1.42692e-18 -3.38893e-20 0 0 -1.42692e-18 0 0 0 
1.37797e-18 -1.72247e-21 0 0 -1.37797e-18 0 0 0 
1.6189e-18 -2.02364e-21 0 0 -1.6189e-18 0 0 0 
1.52878e-18 -3.63085e-20 0 0 -1.52878e-18 0 0 0 
1.5083e-18 -3.58221e-20 0 0 -1.5083e-18 0 0 0 
1.51278e-18 -1.89098e-21 0 0 -1.51278e-18 0 0 0 
1.46175e-18 -3.47165e-20 0 0 -1.46175e-18 0 0 0 
1.46916e-18 -3.48924e-20 0 0 -1.46916e-18 0 0 0 
1.47902e-18 -3.51267e-20 0 0 -1.47902e-18 0 0 0 
1.49824e-18 -3.55832e-20 0 0 -1.49824e-18 0 0 0 
1.50928e-18 -3.58455e-20 0 0 -1.50928e-18 0 0 0 
1.49452e-18 -3.6429e-20 0 0 -1.49452e-18 0 0 0 
1.46097e-18 -3.65244e-20 0 0 -1.46097e-18 0 0 0 
1.47851e-18 -3.69626e-20 0 0 -1.47851e-18 0 0 0 
1.45082e-18 -3.62703e-20 0 0 -1.45082e-18 0 0 0 
1.43345e-18 -3.58364e-20 0 0 -1.43345e-18 0 0 0 
1.47599e-18 -1.26935e-18 0 0 -1.47599e-18 0 0 1.36114e-30 
1.47765e-18 -7.01883e-19 0 0 -1.47765e-18 0 0 1.36171e-30 
1.47502e-18 -7.00636e-19 0 0 -1.47502e-18 0 0 0 
1.46899e-18 -6.97772e-19 0 0 -1.46899e-18 0 0 0 
1.47458e-18 -7.18858e-19 0 0 -1.47458e-18 0 0 0 
1.48148e-18 -1.27408e-18 0 0 -1.48148e-18 0 0 1.36572e-30 
1.48796e-18 -7.06783e-19 0 0 -1.48796e-18 0 0 0 
1.47946e-18 -7.02745e-19 0 0 -1.47946e-18 0 0 0 
1.48015e-18 -7.03072e-19 0 0 -1.48015e-18 0 0 0 
1.48295e-18 -7.22938e-19 0 0 -1.48295e-18 0 0 0 
1.48494e-18 -3.71237e-20 0 0 -1.48494e-18 0 0 1.36726e-30 
1.43327e-18 -3.58318e-20 0 0 -1.43327e-18 0 0 0 
1.51533e-18 -3.78832e-20 0 0 -1.51533e-18 0 0 1.39636e-30 
4.82679e-21 0 0 -2.82367e-20 0 0 -4.82679e-21 0 
2.28863e-20 2.86079e-23 0 0 2.28863e-20 0 0 0 
5.47841e-20 1.30112e-21 0 0 5.47841e-20 0 0 0 
9.20017e-21 1.15003e-23 0 0 9.20017e-21 0 0 0 
3.97198e-20 9.43344e-22 0 0 3.97198e-20 0 0 0 
8.65804e-20 2.05628e-21 0 0 8.65804e-20 0 0 0 
2.28406e-20 5.42465e-22 0 0 2.28406e-20 0 0 0 
6.828e-20 1.62166e-21 0 0 6.828e-20 0 0 0 
2.63555e-20 6.25942e-22 0 0 2.63555e-20 0 0 0 
7.54544e-20 1.79204e-21 0 0 7.54544e-20 0 0 0 
7.44121e-20 9.06897e-22 0 0 7.44121e-20 0 0 0 
2.5544e-20 6.06673e-22 0 0 2.5544e-20 0 0 2.31787e-32 
3.38587e-20 8.04144e-22 0 0 3.38587e-20 0 0 0 
2.96339e-20 7.03804e-22 0 0 2.96339e-20 0 0 0 
6.99495e-20 1.6613e-21 0 0 6.99495e-20 0 0 0 
3.46927e-20 8.2395e-22 0 0 3.46927e-20 0 0 0 
4.49015e-20 1.06641e-21 0 0 4.49015e-20 0 0 0 
6.18723e-20 1.46947e-21 0 0 6.18723e-20 0 0 0 
2.68035e-20 3.35044e-23 0 0 2.68035e-20 0 0 0 
5.16833e-20 1.22748e-21 0 0 5.16833e-20 0 0 0 
3.10224e-20 7.36781e-22 0 0 3.10224e-20 0 0 0 
3.07668e-20 3.84585e-23 0 0 3.07668e-20 0 0 0 
3.22659e-20 7.66314e-22 0 0 3.22659e-20 0 0 0 
4.31911e-20 1.02579e-21 0 0 4.31911e-20 0 0 0 
1.17028e-20 1.46285e-23 0 0 1.17028e-20 0 0 0 
2.05801e-20 4.88778e-22 0 0 2.05801e-20 0 0 0 
1.80697e-20 4.29156e-22 0 0 1.80697e-20 0 0 0 
4.42463e-20 5.53079e-23 0 0 4.42463e-20 0 0 0 
2.95793e-20 3.69742e-23 0 0 2.95793e-20 0 0 0 
3.20877e-20 7.62082e-22 0 0 3.20877e-20 0 0 0 
2.74833e-20 6.52727e-22 0 0 2.74833e-20 0 0 0 
5.18521e-20 1.23149e-21 0 0 5.18521e-20 0 0 0 
4.29458e-20 1.01996e-21 0 0 4.29458e-20 0 0 0 
0 0 0 0 0 0 0 0 
2.78885e-20 6.62351e-22 0 0 2.78885e-20 0 0 0 
2.9923e-20 7.10672e-22 0 0 2.9923e-20 0 0 0 
4.50276e-20 5.62846e-23 0 0 4.50276e-20 0 0 0 
5.64502e-20 7.05629e-23 0 0 5.64502e-20 0 0 0 
4.0632e-20 9.6501e-22 0 0 4.0632e-20 0 0 0 
4.0017e-20 9.50404e-22 0 0 4.0017e-20 0 0 0 
3.87184e-20 9.19561e-22 0 0 3.87184e-20 0 0 0 
1.43172e-20 1.78966e-23 0 0 1.43172e-20 0 0 0 
3.11578e-20 7.39998e-22 0 0 3.11578e-20 0 0 0 
3.59075e-20 8.52804e-22 0 0 3.59075e-20 0 0 0 
4.40725e-20 5.50907e-23 0 0 4.40725e-20 0 0 0 
7.53285e-20 1.78905e-21 0 0 7.53285e-20 0 0 0 
3.864e-20 9.177e-22 0 0 3.864e-20 0 0 0 
6.03755e-20 1.43392e-21 0 0 6.03755e-20 0 0 0 
2.35972e-20 2.94965e-23 0 0 2.35972e-20 0 0 0 
1.26235e-20 3.07699e-22 0 0 1.26235e-20 0 0 0 
3.69198e-20 4.61499e-23 0 0 3.69198e-20 0 0 0 
3.87391e-20 9.44265e-22 0 0 3.87391e-20 0 0 3.53088e-32 
6.17404e-20 1.46634e-21 0 0 6.17404e-20 0 0 0 
5.82978e-20 1.42101e-21 0 0 5.82978e-20 0 0 0 
6.5249e-20 1.59044e-21 0 0 6.5249e-20 0 0 5.9852e-32 
4.29261e-20 1.0195e-21 0 0 4.29261e-20 0 0 0 
0 0 0 0 0 0 0 0 
1.70529e-20 4.15667e-22 0 0 1.70529e-20 0 0 0 
3.47513e-20 4.34395e-23 0 0 3.47513e-20 0 0 0 
3.77379e-20 4.71726e-23 0 0 3.77379e-20 0 0 0 
8.24125e-20 1.03016e-22 0 0 8.24125e-20 0 0 0 
7.47669e-20 9.34588e-23 0 0 7.47669e-20 0 0 0 
7.79751e-21 9.74694e-24 0 0 7.79751e-21 0 0 0 
4.51401e-21 5.64256e-24 0 0 4.51401e-21 0 0 0 
2.81646e-20 6.86512e-22 0 0 2.81646e-20 0 0 0 
5.08009e-20 1.20653e-21 0 0 5.08009e-20 0 0 0 
5.08157e-20 6.35198e-23 0 0 5.08157e-20 0 0 0 
4.61036e-20 1.12378e-21 0 0 4.61036e-20 0 0 0 
4.96649e-20 1.17955e-21 0 0 4.96649e-20 0 0 0 
3.64662e-20 4.55829e-23 0 0 3.64662e-20 0 0 0 
4.53588e-20 1.10562e-21 0 0 4.53588e-20 0 0 0 
2.21849e-20 5.26893e-22 0 0 2.21849e-20 0 0 2.00026e-32 
2.14827e-20 5.23642e-22 0 0 2.14827e-20 0 0 0 
1.80501e-20 4.28692e-22 0 0 1.80501e-20 0 0 1.60663e-32 
3.87641e-20 9.20652e-22 0 0 3.87641e-20 0 0 0 
7.40652e-20 1.75906e-21 0 0 7.40652e-20 0 0 0 
5.98999e-20 1.42263e-21 0 0 5.98999e-20 0 0 0 
2.50798e-20 5.95648e-22 0 0 2.50798e-20 0 0 0 
1.92017e-20 4.56042e-22 0 0 1.92017e-20 0 0 1.75698e-32 
4.86832e-20 1.18665e-21 0 0 4.86832e-20 0 0 4.38191e-32 
2.24137e-20 5.46336e-22 0 0 2.24137e-20 0 0 0 
1.11066e-19 6.94166e-23 0 0 1.11066e-19 0 0 0 
4.94435e-20 6.02593e-22 0 0 4.94435e-20 0 0 0 
3.72305e-19 -3.90918e-19 -4.78774e-19 -4.78774e-19 -1.86153e-19 -2.27989e-19 -2.27989e-19 -1.25493e-31 
4.24379e-21 0 0 -6.27565e-19 0 0 -4.24379e-21 0 
2.87235e-21 0 5.81899e-19 -5.81899e-19 0 2.03106e-21 -2.03106e-21 -1.48445e-34 
3.71933e-19 -3.90527e-19 4.78296e-19 4.78296e-19 -1.85966e-19 2.27761e-19 2.27761e-19 -1.26117e-31 
4.23473e-21 0 0 6.26226e-19 0 0 4.23473e-21 0 
3.21742e-21 0 -2.93483e-19 2.93483e-19 0 -2.27506e-21 2.27506e-21 2.01685e-34 
5.64601e-21 0 -3.30291e-20 0 0 -5.64601e-21 0 0 
5.60745e-21 0 3.28036e-20 0 0 5.60745e-21 0 0 
5.34205e-21 0 0 -3.04497e-20 0 0 -5.34205e-21 0 
5.48578e-21 0 0 3.12689e-20 0 0 5.48578e-21 0 
5.44769e-21 0 0 -3.10518e-20 0 0 -5.44769e-21 0 
5.52763e-21 0 0 3.15075e-20 0 0 5.52763e-21 0 
5.71657e-21 0 0 3.25844e-20 0 0 5.71657e-21 0 
5.66702e-21 0 0 -3.2302e-20 0 0 -5.66702e-21 0 
5.18389e-21 0 0 -2.95482e-20 0 0 -5.18389e-21 0 
5.11215e-21 0 0 2.91393e-20 0 0 5.11215e-21 0 
5.47491e-21 0 0 -3.1207e-20 0 0 -5.47491e-21 0 
5.44861e-21 0 0 3.10571e-20 0 0 5.44861e-21 0 
5.69313e-21 0 -3.24508e-20 0 0 -5.69313e-21 0 0 
5.44456e-21 0 3.1034e-20 0 0 5.44456e-21 0 0 
5.97141e-21 0 0 -3.4037e-20 0 0 -5.97141e-21 0 
6.08442e-21 0 0 3.46812e-20 0 0 6.08442e-21 0 
5.9873e-21 0 -3.41276e-20 0 0 -5.9873e-21 0 0 
5.90778e-21 0 3.36744e-20 0 0 5.90778e-21 0 0 
5.7804e-21 0 -3.29483e-20 0 0 -5.7804e-21 0 0 
5.80573e-21 0 3.30926e-20 0 0 5.80573e-21 0 0 
6.30071e-21 0 3.68591e-20 0 0 6.30071e-21 0 0 
6.29987e-21 0 -3.68543e-20 0 0 -6.29987e-21 0 0 
6.01421e-21 0 3.51831e-20 0 0 6.01421e-21 0 0 
5.9104e-21 0 -3.45758e-20 0 0 -5.9104e-21 0 0 
5.47406e-21 0 -3.12021e-20 0 0 -5.47406e-21 0 0 
5.29528e-21 0 3.01831e-20 0 0 5.29528e-21 0 0 
4.94866e-21 0 2.89497e-20 0 0 4.94866e-21 0 0 
5.09174e-21 0 -1.48933e-20 0 0 -5.09174e-21 0 0 
4.99111e-21 0 0 1.4599e-20 0 0 4.99111e-21 0 
7.00158e-21 0 0 -3.9909e-20 0 0 -7.00158e-21 0 
6.72418e-21 0 0 3.83278e-20 0 0 6.72418e-21 0 
5.73574e-21 0 0 3.3554e-20 0 0 5.73574e-21 0 
5.65829e-21 0 0 -3.3101e-20 0 0 -5.65829e-21 0 
5.61075e-21 0 -3.19813e-20 0 0 -5.61075e-21 0 0 
5.53797e-21 0 3.15664e-20 0 0 5.53797e-21 0 0 
5.94428e-21 0 -3.38824e-20 0 0 -5.94428e-21 0 0 
5.86649e-21 0 3.3439e-20 0 0 5.86649e-21 0 0 
5.60306e-21 0 0 3.19375e-20 0 0 5.60306e-21 0 
5.79638e-21 0 0 -3.30394e-20 0 0 -5.79638e-21 0 
6.07163e-21 0 -3.46083e-20 0 0 -6.07163e-21 0 0 
5.94482e-21 0 3.38855e-20 0 0 5.94482e-21 0 0 
5.68017e-21 0 0 3.2377e-20 0 0 5.68017e-21 0 
5.86036e-21 0 0 -3.3404e-20 0 0 -5.86036e-21 0 
5.29875e-21 0 -3.02029e-20 0 0 -5.29875e-21 0 0 
5.18801e-21 0 2.95716e-20 0 0 5.18801e-21 0 0 
6.28385e-21 0 0 3.5818e-20 0 0 6.28385e-21 0 
6.69946e-21 0 0 -3.81869e-20 0 0 -6.69946e-21 0 
6.02981e-21 0 3.43699e-20 0 0 6.02981e-21 0 0 
6.04547e-21 0 -3.44592e-20 0 0 -6.04547e-21 0 0 
5.59768e-21 0 3.19067e-20 0 0 5.59768e-21 0 0 
5.42936e-21 0 -3.09473e-20 0 0 -5.42936e-21 0 0 
6.12577e-21 0 0 -3.49169e-20 0 0 -6.12577e-21 0 
6.00979e-21 0 0 3.42558e-20 0 0 6.00979e-21 0 
6.05877e-21 0 0 3.4535e-20 0 0 6.05877e-21 0 
5.8097e-21 0 0 -3.31153e-20 0 0 -5.8097e-21 0 
6.91475e-21 0 0 3.94141e-20 0 0 6.91475e-21 0 
6.12344e-21 0 0 -3.49036e-20 0 0 -6.12344e-21 0 
5.93439e-21 0 -3.3826e-20 0 0 -5.93439e-21 0 0 
5.75873e-21 0 3.28247e-20 0 0 5.75873e-21 0 0 
5.67928e-21 0 -3.23719e-20 0 0 -5.67928e-21 0 0 
5.53039e-21 0 3.15232e-20 0 0 5.53039e-21 0 0 
4.71096e-21 0 2.75591e-20 0 0 4.71096e-21 0 0 
4.98413e-21 0 0 -2.91571e-20 0 0 -4.98413e-21 0 
5.53102e-21 0 -3.23565e-20 0 0 -5.53102e-21 0 0 
5.60666e-21 0 3.2799e-20 0 0 5.60666e-21 0 0 
6.07952e-21 0 3.55652e-20 0 0 6.07952e-21 0 0 
6.11426e-21 0 -3.57684e-20 0 0 -6.11426e-21 0 0 
5.541e-21 0 0 -3.24149e-20 0 0 -5.541e-21 0 
5.61046e-21 0 0 3.28212e-20 0 0 5.61046e-21 0 
5.87528e-21 0 0 3.43704e-20 0 0 5.87528e-21 0 
5.82334e-21 0 0 -3.40666e-20 0 0 -5.82334e-21 0 
6.28421e-21 0 -3.582e-20 0 0 -6.28421e-21 0 0 
6.63492e-21 0 3.7819e-20 0 0 6.63492e-21 0 0 
6.14366e-21 0 0 -3.59404e-20 0 0 -6.14366e-21 0 
6.30552e-21 0 0 3.68873e-20 0 0 6.30552e-21 0 
4.81684e-21 0 -1.40893e-20 0 0 -4.81684e-21 0 0 
6.04002e-21 0 -3.53341e-20 0 0 -6.04002e-21 0 0 
5.96481e-21 0 3.48941e-20 0 0 5.96481e-21 0 0 
5.3828e-21 0 -3.14894e-20 0 0 -5.3828e-21 0 0 
5.41274e-21 0 3.16645e-20 0 0 5.41274e-21 0 0 
5.48353e-21 0 -3.12561e-20 0 0 -5.48353e-21 0 0 
5.73725e-21 0 3.27023e-20 0 0 5.73725e-21 0 0 
5.75585e-21 0 0 -3.36717e-20 0 0 -5.75585e-21 0 
5.7621e-21 0 0 3.37083e-20 0 0 5.7621e-21 0 
6.3488e-21 0 3.61882e-20 0 0 6.3488e-21 0 0 
6.24731e-21 0 -3.56097e-20 0 0 -6.24731e-21 0 0 
5.45202e-21 0 0 3.10765e-20 0 0 5.45202e-21 0 
5.42949e-21 0 0 -3.09481e-20 0 0 -5.42949e-21 0 
4.84843e-21 0 0 2.83633e-20 0 0 4.84843e-21 0 
4.99622e-21 0 1.46139e-20 0 0 4.99622e-21 0 0 
5.87058e-21 0 -3.34623e-20 0 0 -5.87058e-21 0 0 
5.60357e-21 0 3.19404e-20 0 0 5.60357e-21 0 0 
5.64973e-21 0 3.22035e-20 0 0 5.64973e-21 0 0 
5.73683e-21 0 -3.26999e-20 0 0 -5.73683e-21 0 0 
5.25955e-21 0 2.99794e-20 0 0 5.25955e-21 0 0 
5.41162e-21 0 -3.08463e-20 0 0 -5.41162e-21 0 0 
5.31223e-21 0 0 -3.02797e-20 0 0 -5.31223e-21 0 
5.34187e-21 0 0 3.04486e-20 0 0 5.34187e-21 0 
6.29948e-21 0 3.5907e-20 0 0 6.29948e-21 0 0 
6.01962e-21 0 -3.43119e-20 0 0 -6.01962e-21 0 0 
5.37652e-21 0 0 -3.06462e-20 0 0 -5.37652e-21 0 
5.43795e-21 0 0 3.09963e-20 0 0 5.43795e-21 0 
5.27804e-21 0 3.00848e-20 0 0 5.27804e-21 0 0 
5.40559e-21 0 -3.08119e-20 0 0 -5.40559e-21 0 0 
5.61699e-21 0 -3.20168e-20 0 0 -5.61699e-21 0 0 
5.40889e-21 0 3.08307e-20 0 0 5.40889e-21 0 0 
5.44283e-21 0 0 -3.10241e-20 0 0 -5.44283e-21 0 
5.33414e-21 0 0 3.04046e-20 0 0 5.33414e-21 0 
5.59725e-21 0 0 -3.19044e-20 0 0 -5.59725e-21 0 
5.57784e-21 0 0 3.17937e-20 0 0 5.57784e-21 0 
5.21378e-21 0 0 2.97185e-20 0 0 5.21378e-21 0 
5.37747e-21 0 0 -3.06516e-20 0 0 -5.37747e-21 0 
5.16192e-21 0 -2.94229e-20 0 0 -5.16192e-21 0 0 
5.15353e-21 0 2.93751e-20 0 0 5.15353e-21 0 0 
5.11554e-21 0 0 2.91586e-20 0 0 5.11554e-21 0 
5.25302e-21 0 0 -2.99422e-20 0 0 -5.25302e-21 0 
5.3263e-21 0 0 -3.03599e-20 0 0 -5.3263e-21 0 
5.61583e-21 0 0 3.20102e-20 0 0 5.61583e-21 0 
5.57793e-21 0 3.17942e-20 0 0 5.57793e-21 0 0 
5.52797e-21 0 -3.15094e-20 0 0 -5.52797e-21 0 0 
5.26267e-21 0 -2.99972e-20 0 0 -5.26267e-21 0 0 
5.2794e-21 0 3.00926e-20 0 0 5.2794e-21 0 0 
5.42377e-21 0 0 3.09155e-20 0 0 5.42377e-21 0 
5.46568e-21 0 0 -3.11544e-20 0 0 -5.46568e-21 0 
5.64051e-21 0 3.21509e-20 0 0 5.64051e-21 0 0 
5.75791e-21 0 -3.28201e-20 0 0 -5.75791e-21 0 0 
5.40785e-21 0 0 3.08247e-20 0 0 5.40785e-21 0 
5.39148e-21 0 0 -3.07315e-20 0 0 -5.39148e-21 0 
6.67159e-21 -9.04241e-24 0 -4.7535e-21 -1.26911e-23 0 -6.67157e-21 -2.42149e-34 
1.36904e-20 -1.67835e-22 -5.63942e-23 -2.52222e-21 -9.0876e-22 -3.05352e-22 -1.36568e-20 7.36486e-34 
9.21701e-21 -6.6063e-23 -2.90615e-23 -1.70467e-21 -3.56878e-22 -1.56993e-22 -9.20876e-21 6.91435e-34 
1.64506e-20 -2.02587e-22 -1.3553e-22 -2.97699e-21 -1.11574e-21 -7.46428e-22 -1.63957e-20 -1.26622e-33 
7.13656e-21 -8.49337e-25 -2.55219e-27 -1.78414e-21 -3.39735e-24 -1.02088e-26 -7.13656e-21 -2.87766e-33 
8.16721e-21 -1.15708e-23 -6.06786e-23 -1.96174e-21 -4.81484e-23 -2.52495e-22 -8.16316e-21 3.0387e-34 
7.20696e-21 -1.27402e-23 -4.0312e-23 -1.16177e-21 -7.89806e-23 -2.49907e-22 -7.2022e-21 -5.9946e-34 
7.1143e-21 -2.32045e-23 -5.59606e-23 -1.28551e-21 -1.28277e-22 -3.09356e-22 -7.10641e-21 -4.16997e-34 
9.85856e-21 -6.96251e-23 -3.10843e-23 -1.82332e-21 -3.76129e-22 -1.67924e-22 -9.84995e-21 1.25935e-33 
8.55165e-21 -4.78072e-23 -8.08923e-23 -1.53797e-21 -2.65331e-22 -4.48954e-22 -8.53574e-21 -2.19791e-33 
1.01032e-20 -9.65611e-23 -7.38331e-23 -1.83605e-21 -5.30186e-22 -4.05394e-22 -1.00812e-20 6.21261e-34 
5.8537e-21 -9.11671e-24 -2.21738e-23 -1.91437e-21 -2.78747e-23 -6.77971e-23 -5.85324e-21 -3.27553e-34 
7.69128e-21 -2.22991e-23 -1.4341e-23 -1.26787e-21 -1.35244e-22 -8.69781e-23 -7.6896e-21 3.7719e-34 
1.0352e-20 -1.42298e-23 -4.91548e-23 -1.24038e-21 -1.18659e-22 -4.09891e-22 -1.03433e-20 -2.92424e-33 
6.78997e-21 -1.17817e-23 -1.91622e-23 -1.10887e-21 -7.2128e-23 -1.17312e-22 -6.78858e-21 9.67816e-34 
7.22652e-21 -2.29207e-24 0 -1.35497e-22 -1.22226e-22 0 -7.22548e-21 5.56299e-34 
7.10129e-21 -2.29492e-23 3.72391e-23 -1.29927e-21 -1.2536e-22 2.03419e-22 -7.09727e-21 -1.59341e-33 
6.94574e-21 -2.54527e-23 0 -2.47442e-21 -7.14424e-23 0 -6.94537e-21 5.15807e-34 
7.98209e-21 -1.0174e-24 2.56145e-23 -1.92288e-21 -4.22297e-24 1.06319e-22 -7.98138e-21 1.2907e-33 
7.34982e-21 -1.04128e-23 5.46058e-23 -1.76541e-21 -4.33296e-23 2.27225e-22 -7.34618e-21 -1.0552e-33 
1.13266e-20 -1.08381e-22 9.33155e-23 -2.04973e-21 -5.97452e-22 5.14403e-22 -1.12992e-20 4.866e-34 
8.28085e-21 -5.85585e-23 3.0258e-23 -1.52877e-21 -3.16899e-22 1.63746e-22 -8.27316e-21 -7.05689e-34 
1.0536e-20 -9.11649e-23 1.15494e-22 -1.88429e-21 -5.08199e-22 6.4382e-22 -1.0504e-20 2.38878e-33 
7.48363e-21 -3.74261e-23 4.71928e-23 -1.36499e-21 -2.04992e-22 2.58486e-22 -7.47635e-21 -5.09858e-34 
8.43653e-21 -1.64218e-23 4.71896e-23 -1.35998e-21 -1.01802e-22 2.92539e-22 -8.43084e-21 2.27344e-33 
7.42582e-21 -1.28633e-23 1.38461e-23 -1.22411e-21 -7.80232e-23 8.39844e-23 -7.42493e-21 -1.38722e-34 
8.06219e-21 -7.53608e-23 0 -2.87215e-21 -2.11466e-22 0 -8.05941e-21 2.5659e-33 
6.77545e-21 -2.29963e-24 0 -4.82751e-21 -3.22756e-24 0 -6.77545e-21 7.79382e-34 
6.99483e-21 -1.15191e-23 4.10873e-23 -1.70132e-21 -4.73451e-23 1.68874e-22 -6.99263e-21 1.59965e-34 
1.29219e-20 -1.53754e-22 0 -2.36228e-21 -8.39273e-22 0 -1.28946e-20 -9.52719e-34 
7.54965e-21 -1.02325e-23 5.37912e-21 0 -1.43614e-23 7.54964e-21 0 -5.7271e-34 
1.43922e-20 -1.76439e-22 2.65151e-21 -5.9285e-23 -9.55343e-22 1.43569e-20 -3.21004e-22 2.52013e-34 
8.53947e-21 -6.12067e-23 1.57936e-21 -2.69252e-23 -3.30644e-22 8.53182e-21 -1.45452e-22 -3.53304e-34 
1.71265e-20 -2.1091e-22 3.09931e-21 -1.41098e-22 -1.16159e-21 1.70694e-20 -7.77097e-22 -7.6901e-34 
5.89972e-21 -7.02138e-25 1.47493e-21 -2.10987e-27 -2.80855e-24 5.89972e-21 -8.43949e-27 1.04321e-33 
8.03646e-21 -1.13856e-23 1.93033e-21 -5.97072e-23 -4.73776e-23 8.03248e-21 -2.48453e-22 3.8902e-34 
6.11045e-21 -1.08018e-23 9.85013e-22 -3.41787e-23 -6.6964e-23 6.10641e-21 -2.11884e-22 -3.78082e-34 
8.41497e-21 -2.74468e-23 1.52053e-21 -6.61916e-23 -1.51729e-22 8.40564e-21 -3.65914e-22 -5.36773e-34 
8.83471e-21 -6.23943e-23 1.63396e-21 -2.78561e-23 -3.37066e-22 8.82699e-21 -1.50484e-22 1.15314e-33 
1.04089e-20 -5.81897e-23 1.87197e-21 -9.846e-23 -3.22954e-22 1.03895e-20 -5.46455e-22 -2.9595e-33 
1.13035e-20 -1.08032e-22 2.05417e-21 -8.26042e-23 -5.9317e-22 1.12788e-20 -4.53553e-22 3.12834e-34 
6.13236e-21 -9.5507e-24 2.0055e-21 -2.32294e-23 -2.92016e-23 6.13188e-21 -7.10245e-23 6.13395e-36 
6.53676e-21 -1.89519e-23 1.07755e-21 -1.21883e-23 -1.14943e-22 6.53534e-21 -7.3922e-23 4.93998e-34 
8.11304e-21 -1.1152e-23 9.72103e-22 -3.85233e-23 -9.29944e-23 8.10614e-21 -3.21237e-22 -3.09822e-33 
6.17347e-21 -1.07119e-23 1.00819e-21 -1.74223e-23 -6.55791e-23 6.1722e-21 -1.0666e-22 1.30188e-33 
5.36717e-21 -1.70233e-24 1.00635e-22 0 -9.07778e-23 5.3664e-21 0 6.84676e-34 
7.17393e-21 -2.31839e-23 1.31256e-21 3.762e-23 -1.26643e-22 7.16986e-21 2.055e-22 -1.31944e-33 
6.65789e-21 -2.43979e-23 2.37187e-21 0 -6.84817e-23 6.65754e-21 0 2.68039e-34 
6.93048e-21 -8.83363e-25 1.66955e-21 2.22399e-23 -3.66661e-24 6.92986e-21 9.23119e-23 5.94556e-34 
8.07357e-21 -1.14382e-23 1.93925e-21 5.99829e-23 -4.75964e-23 8.06957e-21 2.496e-22 -2.0002e-33 
1.131e-20 -1.08222e-22 2.04672e-21 9.31783e-23 -5.96573e-22 1.12826e-20 5.13647e-22 7.96254e-34 
8.20311e-21 -5.80088e-23 1.51441e-21 2.9974e-23 -3.13924e-22 8.1955e-21 1.62209e-22 3.12457e-33 
1.09945e-20 -9.51327e-23 1.9663e-21 1.2052e-22 -5.30318e-22 1.09612e-20 6.71841e-22 7.80605e-34 
9.5317e-21 -4.76687e-23 1.73855e-21 6.01082e-23 -2.61093e-22 9.52243e-21 3.29227e-22 -1.5076e-33 
9.20417e-21 -1.7916e-23 1.48372e-21 5.14833e-23 -1.11065e-22 9.19796e-21 3.19157e-22 2.09435e-33 
7.05798e-21 -1.22261e-23 1.16347e-21 1.31602e-23 -7.41583e-23 7.05714e-21 7.98242e-23 -2.19035e-34 
8.11116e-21 -7.58186e-23 2.8896e-21 0 -2.12751e-22 8.10837e-21 0 2.42291e-33 
6.59573e-21 -2.23863e-24 4.69945e-21 0 -3.14194e-24 6.59573e-21 0 8.68358e-34 
7.23282e-21 -1.1911e-23 1.7592e-21 4.24852e-23 -4.89559e-23 7.23054e-21 1.74619e-22 -2.37474e-34 
1.44843e-20 -1.72345e-22 2.64791e-21 0 -9.40753e-22 1.44537e-20 0 -1.56377e-33 
6.77682e-21 -9.18505e-24 0 4.82849e-21 -1.28913e-23 0 6.77681e-21 -4.41499e-34 
1.36698e-20 -1.67583e-22 5.63094e-23 2.51843e-21 -9.07393e-22 3.04892e-22 1.36363e-20 -3.12844e-34 
8.97649e-21 -6.4339e-23 2.83031e-23 1.66018e-21 -3.47565e-22 1.52896e-22 8.96845e-21 -2.49263e-34 
1.62029e-20 -1.99536e-22 1.33489e-22 2.93217e-21 -1.09894e-21 7.35189e-22 1.61489e-20 -3.97764e-34 
7.02865e-21 -8.36493e-25 2.5136e-27 1.75716e-21 -3.34597e-24 1.00544e-26 7.02865e-21 1.21815e-33 
7.5823e-21 -1.07422e-23 5.6333e-23 1.82125e-21 -4.47002e-23 2.34412e-22 7.57854e-21 5.07563e-34 
6.54693e-21 -1.15734e-23 3.66201e-23 1.05537e-21 -7.17473e-23 2.27019e-22 6.54259e-21 -5.12401e-34 
6.93654e-21 -2.26247e-23 5.45624e-23 1.25339e-21 -1.25072e-22 3.01626e-22 6.92885e-21 -1.88536e-34 
9.59451e-21 -6.77603e-23 3.02517e-23 1.77449e-21 -3.66055e-22 1.63426e-22 9.58613e-21 1.17048e-33 
8.38396e-21 -4.68697e-23 7.93061e-23 1.50781e-21 -2.60128e-22 4.4015e-22 8.36836e-21 -2.1222e-33 
1.06002e-20 -1.01311e-22 7.7465e-23 1.92637e-21 -5.56266e-22 4.25335e-22 1.05771e-20 -1.23371e-34 
6.55158e-21 -1.02036e-23 2.48173e-23 2.1426e-21 -3.11979e-23 7.58799e-23 6.55106e-21 -1.79111e-34 
7.4658e-21 -2.16454e-23 1.39206e-23 1.2307e-21 -1.31279e-22 8.44281e-23 7.46416e-21 5.49968e-34 
9.99817e-21 -1.37433e-23 4.74744e-23 1.19798e-21 -1.14602e-22 3.95878e-22 9.98967e-21 -2.6365e-33 
6.96858e-21 -1.20916e-23 1.96662e-23 1.13804e-21 -7.40253e-23 1.20398e-22 6.96714e-21 2.10758e-33 
4.98993e-21 -1.58268e-24 0 9.35614e-23 -8.43974e-23 0 4.98922e-21 -4.70715e-34 
6.75185e-21 -2.18199e-23 -3.54066e-23 1.23533e-21 -1.19191e-22 -1.93409e-22 6.74802e-21 -1.13533e-33 
6.4069e-21 -2.34781e-23 0 2.28246e-21 -6.59e-23 0 6.40656e-21 1.80194e-34 
7.88688e-21 -1.00527e-24 -2.53089e-23 1.89994e-21 -4.1726e-24 -1.05051e-22 7.88618e-21 1.16746e-33 
7.37966e-21 -1.04551e-23 -5.48275e-23 1.77257e-21 -4.35055e-23 -2.28147e-22 7.376e-21 -1.68798e-33 
1.13768e-20 -1.08861e-22 -9.37285e-23 2.0588e-21 -6.00096e-22 -5.1668e-22 1.13492e-20 -2.63206e-34 
8.52423e-21 -6.02796e-23 -3.11473e-23 1.5737e-21 -3.26213e-22 -1.68559e-22 8.51632e-21 -1.02053e-33 
1.10421e-20 -9.55441e-23 -1.21041e-22 1.97481e-21 -5.32611e-22 -6.74747e-22 1.10086e-20 3.17834e-33 
8.37212e-21 -4.18696e-23 -5.27958e-23 1.52704e-21 -2.2933e-22 -2.89175e-22 8.36399e-21 -1.83725e-33 
7.8299e-21 -1.52409e-23 -4.37964e-23 1.26219e-21 -9.44822e-23 -2.71504e-22 7.82462e-21 1.42277e-33 
6.45005e-21 -1.1173e-23 -1.20267e-23 1.06326e-21 -6.77708e-23 -7.29487e-23 6.44928e-21 -1.21686e-34 
8.00929e-21 -7.48664e-23 0 2.85331e-21 -2.10079e-22 0 8.00653e-21 3.08043e-33 
7.01186e-21 -2.37987e-24 0 4.99595e-21 -3.34017e-24 0 7.01186e-21 6.81959e-34 
7.22947e-21 -1.19055e-23 -4.24656e-23 1.75839e-21 -4.89332e-23 -1.74539e-22 7.2272e-21 -6.59651e-35 
1.22579e-20 -1.45854e-22 0 2.24089e-21 -7.96147e-22 0 1.2232e-20 -9.46148e-34 
7.19919e-21 -9.75751e-24 -5.12943e-21 0 -1.36947e-23 -7.19918e-21 0 -3.34503e-34 
1.45067e-20 -1.77843e-22 -2.67262e-21 5.97568e-23 -9.62946e-22 -1.44711e-20 3.23559e-22 5.931e-34 
7.67585e-21 -5.50167e-23 -1.41963e-21 2.42022e-23 -2.97205e-22 -7.66898e-21 1.30742e-22 3.25126e-35 
1.76721e-20 -2.17629e-22 -3.19804e-21 1.45593e-22 -1.19859e-21 -1.76132e-20 8.01852e-22 -8.30885e-34 
5.74826e-21 -6.84113e-25 -1.43707e-21 2.05571e-27 -2.73645e-24 -5.74826e-21 8.22283e-27 9.50125e-34 
6.68993e-21 -9.47791e-24 -1.6069e-21 4.97031e-23 -3.94394e-23 -6.68662e-21 2.06824e-22 5.37616e-34 
7.45117e-21 -1.31719e-23 -1.20114e-21 4.1678e-23 -8.16569e-23 -7.44624e-21 2.58375e-22 -9.1287e-34 
7.9026e-21 -2.57757e-23 -1.42795e-21 6.21613e-23 -1.42491e-22 -7.89384e-21 3.43634e-22 -2.06281e-34 
9.31623e-21 -6.5795e-23 -1.72302e-21 2.93743e-23 -3.55438e-22 -9.30809e-21 1.58686e-22 1.17481e-33 
1.0541e-20 -5.89285e-23 -1.89574e-21 9.97101e-23 -3.27054e-22 -1.05214e-20 5.53393e-22 -3.47391e-33 
1.11445e-20 -1.06513e-22 -2.02528e-21 8.14426e-23 -5.84828e-22 -1.11202e-20 4.47175e-22 9.47313e-35 
5.97561e-21 -9.30657e-24 -1.95423e-21 2.26356e-23 -2.84551e-23 -5.97514e-21 6.9209e-23 -1.38627e-34 
6.56128e-21 -1.90229e-23 -1.08159e-21 1.2234e-23 -1.15374e-22 -6.55984e-21 7.41993e-23 7.20312e-34 
1.02703e-20 -1.41173e-23 -1.23058e-21 4.87664e-23 -1.17721e-22 -1.02615e-20 4.06652e-22 -2.97443e-33 
5.65565e-21 -9.81344e-24 -9.23625e-22 1.5961e-23 -6.00784e-23 -5.65448e-21 9.7714e-23 6.87788e-34 
2.84119e-21 -9.01153e-25 -5.32723e-23 0 -4.80545e-23 -2.84078e-21 0 7.70261e-34 
7.22104e-21 -2.33362e-23 -1.32118e-21 -3.7867e-23 -1.27474e-22 -7.21695e-21 -2.06849e-22 -1.53423e-33 
5.91514e-21 -2.1676e-23 -2.10727e-21 0 -6.08418e-23 -5.91482e-21 0 4.70758e-34 
8.54746e-21 -1.08946e-24 -2.05908e-21 -2.74288e-23 -4.52208e-24 -8.5467e-21 -1.1385e-22 1.20244e-33 
7.37275e-21 -1.04453e-23 -1.77091e-21 -5.47762e-23 -4.34648e-23 -7.3691e-21 -2.27934e-22 -1.56276e-33 
1.34121e-20 -1.28336e-22 -2.42713e-21 -1.10497e-22 -7.07456e-22 -1.33796e-20 -6.09116e-22 6.41427e-34 
8.0882e-21 -5.71962e-23 -1.4932e-21 -2.95541e-23 -3.09527e-22 -8.08069e-21 -1.59937e-22 2.49054e-33 
1.12378e-20 -9.72377e-23 -2.00981e-21 -1.23187e-22 -5.42052e-22 -1.12037e-20 -6.86707e-22 8.54415e-34 
9.82854e-21 -4.91532e-23 -1.79269e-21 -6.19802e-23 -2.69224e-22 -9.81898e-21 -3.3948e-22 -1.52738e-33 
8.07556e-21 -1.57191e-23 -1.30179e-21 -4.51705e-23 -9.74466e-23 -8.07012e-21 -2.80023e-22 1.97247e-33 
6.35583e-21 -1.10098e-23 -1.04773e-21 -1.1851e-23 -6.67809e-23 -6.35508e-21 -7.18831e-23 -6.66841e-34 
7.61897e-21 -7.12178e-23 -2.71426e-21 0 -1.99841e-22 -7.61634e-21 0 2.22926e-33 
6.84501e-21 -2.32324e-24 -4.87707e-21 0 -3.26069e-24 -6.84501e-21 0 6.25082e-34 
6.5016e-21 -1.07069e-23 -1.58135e-21 -3.819e-23 -4.40066e-23 -6.49955e-21 -1.56966e-22 1.76457e-34 
1.32243e-20 -1.57353e-22 -2.41757e-21 0 -8.58918e-22 -1.31964e-20 0 -1.17173e-33 
5.36975e-20 0 -4.48552e-20 -4.48552e-20 0 -3.79699e-20 -3.79699e-20 2.65157e-32 
0 0 0 0 0 0 0 0 
0 0 0 0 0 0 0 0 
0 0 0 0 0 0 0 0 
0 0 0 0 0 0 0 0 
0 0 0 0 0 0 0 0 
0 0 0 0 0 0 0 0 
0 0 0 0 0 0 0 0 
0 0 0 0 0 0 0 0 
0 0 0 0 0 0 0 0 
0 0 0 0 0 0 0 0 
0 0 0 0 0 0 0 0 
0 0 0 0 0 0 0 0 
0 0 0 0 0 0 0 0 
0 0 0 0 0 0 0 0 
0 0 0 0 0 0 0 0 
0 0 0 0 0 0 0 0 
0 0 0 0 0 0 0 0 
0 0 0 0 0 0 0 0 
0 0 0 0 0 0 0 0 
0 0 0 0 0 0 0 0 
0 0 0 0 0 0 0 0 
0 0 0 0 0 0 0 0 
0 0 0 0 0 0 0 0 
0 0 0 0 0 0 0 0 
0 0 0 0 0 0 0 0 
0 0 0 0 0 0 0 0 
0 0 0 0 0 0 0 0 
0 0 0 0 0 0 0 0 
0 0 0 0 0 0 0 0 
0 0 0 0 0 0 0 0 
0 0 0 0 0 0 0 0 
0 0 0 0 0 0 0 0 
0 0 0 0 0 0 0 0 
0 0 0 0 0 0 0 0 
0 0 0 0 0 0 0 0 
0 0 0 0 0 0 0 0 
0 0 0 0 0 0 0 0 
0 0 0 0 0 0 0 0 
0 0 0 0 0 0 0 0 
0 0 0 0 0 0 0 0 
0 0 0 0 0 0 0 0 
0 0 0 0 0 0 0 0 
0 0 0 0 0 0 0 0 
0 0 0 0 0 0 0 0 
0 0 0 0 0 0 0 0 
0 0 0 0 0 0 0 0 
5.45512e-20 0 4.55684e-20 4.55684e-20 0 3.85735e-20 3.85735e-20 2.7626e-32 
5.77881e-20 -2.36473e-21 -3.58363e-22 -1.33451e-20 -1.00794e-20 -1.52748e-21 -5.68817e-20 -2.99305e-32 
6.33467e-20 -3.84751e-21 -1.40495e-21 -2.13358e-20 -1.12185e-20 -4.09655e-21 -6.22107e-20 -1.84999e-32 
4.82726e-20 -1.76651e-21 -3.1066e-22 -9.87966e-21 -8.49246e-21 -1.49349e-21 -4.74962e-20 -1.67431e-33 
1.00197e-19 -3.00959e-21 -2.40144e-21 -1.18981e-20 -2.41133e-20 -1.92407e-20 -9.53296e-20 -8.90165e-33 
1.07981e-19 -1.79006e-21 -1.05848e-21 -7.19838e-21 -2.57973e-20 -1.52542e-20 -1.03739e-19 -6.18136e-33 
1.11771e-19 -1.9654e-21 -7.7817e-22 -8.07874e-21 -2.63061e-20 -1.04155e-20 -1.08131e-19 1.23035e-32 
6.55555e-20 -1.07359e-21 -3.92782e-22 -4.84158e-21 -1.41475e-20 -5.17598e-21 -6.38011e-20 7.12739e-33 
4.88654e-20 -1.53456e-21 -4.29549e-22 -8.42936e-21 -8.74106e-21 -2.44677e-21 -4.80149e-20 2.92544e-34 
5.16836e-20 -1.80027e-21 -4.81945e-22 -9.69643e-21 -9.42329e-21 -2.52267e-21 -5.07546e-20 -6.52535e-33 
5.39588e-20 -1.73435e-21 -7.64989e-22 -9.21975e-21 -9.94233e-21 -4.38539e-21 -5.28532e-20 1.55259e-33 
5.96977e-20 -1.99046e-21 -1.00509e-21 -1.01618e-20 -1.14217e-20 -5.76738e-21 -5.83103e-20 -9.20947e-35 
1.6581e-19 -3.83964e-21 -3.38478e-21 -1.90801e-20 -3.22277e-20 -2.84098e-20 -1.60147e-19 5.04116e-32 
5.72392e-20 -2.14829e-21 -1.24173e-21 -1.07368e-20 -1.11587e-20 -6.44982e-21 -5.57692e-20 -2.924e-33 
5.85253e-20 -1.27473e-21 -4.44971e-22 -6.27677e-21 -1.16199e-20 -4.05619e-21 -5.72166e-20 1.37339e-32 
6.1413e-20 -1.69922e-21 -9.16715e-22 -8.00671e-21 -1.26702e-20 -6.83545e-21 -5.97018e-20 -3.56024e-34 
8.80971e-20 -1.48059e-21 -7.01976e-22 -6.04582e-21 -2.08232e-20 -9.87272e-21 -8.50295e-20 -2.21885e-32 
6.74815e-20 -1.05029e-21 -4.61813e-22 -4.71287e-21 -1.46119e-20 -6.42483e-21 -6.55665e-20 -1.74719e-32 