ITEM: TIMESTEP
190
ITEM: NUMBER OF SURFS
6916
ITEM: BOX BOUNDS oo rr rr
-20 20
-20 20
-20 20
ITEM: SURFS f_save[1] f_save[2] f_save[3] f_save[4] f_save[5] f_save[6] f_save[7] f_save[8] 
2.35989e-18 -1.77065e-19 0 0 -2.35989e-18 0 0 0 
1.73216e-19 0 0 -5.19826e-19 0 0 -1.73216e-19 0 
8.7477e-23 6.56303e-24 0 0 8.7477e-23 0 0 0 
1.42435e-18 -3.47186e-20 0 0 -1.42435e-18 0 0 1.31629e-30 
1.32939e-18 -1.66174e-21 0 0 -1.32939e-18 0 0 0 
1.31892e-18 -1.64866e-21 0 0 -1.31892e-18 0 0 0 
1.36276e-18 -1.70345e-21 0 0 -1.36276e-18 0 0 0 
1.39285e-18 -3.39506e-20 0 0 -1.39285e-18 0 0 1.28388e-30 
1.38159e-18 -3.28128e-20 0 0 -1.38159e-18 0 0 0 
1.46928e-18 -3.48953e-20 0 0 -1.46928e-18 0 0 0 
1.52969e-18 -3.63302e-20 0 0 -1.52969e-18 0 0 0 
1.50326e-18 -3.57025e-20 0 0 -1.50326e-18 0 0 0 
1.48441e-18 -3.61827e-20 0 0 -1.48441e-18 0 0 0 
1.48646e-18 -3.53035e-20 0 0 -1.48646e-18 0 0 0 
1.43779e-18 -3.41476e-20 0 0 -1.43779e-18 0 0 0 
1.43798e-18 -3.50508e-20 0 0 -1.43798e-18 0 0 0 
1.41323e-18 -3.44474e-20 0 0 -1.41323e-18 0 0 1.30418e-30 
1.4215e-18 -3.37608e-20 0 0 -1.4215e-18 0 0 1.31792e-30 
1.42913e-18 -3.39419e-20 0 0 -1.42913e-18 0 0 0 
1.38667e-18 -3.38e-20 0 0 -1.38667e-18 0 0 1.27883e-30 
1.4041e-18 -3.33474e-20 0 0 -1.4041e-18 0 0 0 
1.47348e-18 -3.49951e-20 0 0 -1.47348e-18 0 0 0 
1.44684e-18 -3.52667e-20 0 0 -1.44684e-18 0 0 0 
1.45669e-18 -3.45965e-20 0 0 -1.45669e-18 0 0 0 
1.49064e-18 -3.54026e-20 0 0 -1.49064e-18 0 0 0 
1.45075e-18 -3.44553e-20 0 0 -1.45075e-18 0 0 0 
1.6412e-18 -2.05151e-21 0 0 -1.6412e-18 0 0 0 
1.42754e-18 -3.3904e-20 0 0 -1.42754e-18 0 0 0 
1.40538e-18 -3.33778e-20 0 0 -1.40538e-18 0 0 0 
1.58199e-18 -1.97748e-21 0 0 -1.58199e-18 0 0 0 
1.36874e-18 -3.25076e-20 0 0 -1.36874e-18 0 0 0 
1.40978e-18 -3.34822e-20 0 0 -1.40978e-18 0 0 0 
1.57489e-18 -1.96862e-21 0 0 -1.57489e-18 0 0 0 
1.48341e-18 -3.6158e-20 0 0 -1.48341e-18 0 0 1.36525e-30 
1.41719e-18 -3.36584e-20 0 0 -1.41719e-18 0 0 0 
1.43388e-18 -1.79236e-21 0 0 -1.43388e-18 0 0 0 
1.45549e-18 -3.54775e-20 0 0 -1.45549e-18 0 0 1.33942e-30 
1.41305e-18 -3.356e-20 0 0 -1.41305e-18 0 0 0 
1.43376e-18 -1.7922e-21 0 0 -1.43376e-18 0 0 0 
1.39002e-18 -3.3013e-20 0 0 -1.39002e-18 0 0 0 
1.39457e-18 -3.39926e-20 0 0 -1.39457e-18 0 0 0 
1.8295e-18 -2.28689e-21 0 0 -1.8295e-18 0 0 0 
1.38916e-18 -3.29926e-20 0 0 -1.38916e-18 0 0 0 
1.42392e-18 -3.47081e-20 0 0 -1.42392e-18 0 0 0 
1.51114e-18 -1.88893e-21 0 0 -1.51114e-18 0 0 0 
1.47422e-18 -3.50129e-20 0 0 -1.47422e-18 0 0 0 
1.41849e-18 -3.36891e-20 0 0 -1.41849e-18 0 0 0 
1.69464e-18 -2.11831e-21 0 0 -1.69464e-18 0 0 0 
1.30101e-18 -1.62627e-21 0 0 -1.30101e-18 0 0 0 
1.42073e-18 -1.77592e-21 0 0 -1.42073e-18 0 0 0 
1.43258e-18 -3.4024e-20 0 0 -1.43258e-18 0 0 1.32374e-30 
1.44037e-18 -3.42089e-20 0 0 -1.44037e-18 0 0 0 
1.39455e-18 -3.31206e-20 0 0 -1.39455e-18 0 0 1.28597e-30 
1.51225e-18 -1.89032e-21 0 0 -1.51225e-18 0 0 0 
1.42956e-18 -3.39519e-20 0 0 -1.42956e-18 0 0 0 
1.53393e-18 -3.64308e-20 0 0 -1.53393e-18 0 0 0 
1.56052e-18 -3.70623e-20 0 0 -1.56052e-18 0 0 0 
1.6123e-18 -2.01537e-21 0 0 -1.6123e-18 0 0 0 
1.50293e-18 -3.56946e-20 0 0 -1.50293e-18 0 0 0 
1.49765e-18 -3.55692e-20 0 0 -1.49765e-18 0 0 0 
1.4291e-18 -3.39412e-20 0 0 -1.4291e-18 0 0 0 
1.80904e-18 -2.26132e-21 0 0 -1.80904e-18 0 0 0 
1.41914e-18 -3.37047e-20 0 0 -1.41914e-18 0 0 0 
1.33742e-18 -3.25995e-20 0 0 -1.33742e-18 0 0 1.23811e-30 
1.55982e-18 -1.9498e-21 0 0 -1.55982e-18 0 0 0 
1.33582e-18 -3.17259e-20 0 0 -1.33582e-18 0 0 0 
1.47048e-18 -3.4924e-20 0 0 -1.47048e-18 0 0 0 
1.53201e-18 -1.91502e-21 0 0 -1.53201e-18 0 0 0 
1.39388e-18 -3.31047e-20 0 0 -1.39388e-18 0 0 0 
1.4172e-18 -3.36586e-20 0 0 -1.4172e-18 0 0 0 
1.54115e-18 -1.92643e-21 0 0 -1.54115e-18 0 0 0 
1.452e-18 -3.4485e-20 0 0 -1.452e-18 0 0 0 
1.38748e-18 -3.29527e-20 0 0 -1.38748e-18 0 0 0 
1.38068e-18 -1.72585e-21 0 0 -1.38068e-18 0 0 0 
1.61961e-18 -2.02452e-21 0 0 -1.61961e-18 0 0 0 
1.44841e-18 -3.43998e-20 0 0 -1.44841e-18 0 0 0 
1.47644e-18 -3.50656e-20 0 0 -1.47644e-18 0 0 0 
1.45327e-18 -1.8166e-21 0 0 -1.45327e-18 0 0 0 
1.39277e-18 -3.30782e-20 0 0 -1.39277e-18 0 0 0 
1.39178e-18 -3.30548e-20 0 0 -1.39178e-18 0 0 0 
1.50476e-18 -3.57382e-20 0 0 -1.50476e-18 0 0 0 
1.46654e-18 -3.48304e-20 0 0 -1.46654e-18 0 0 0 
1.48745e-18 -3.5327e-20 0 0 -1.48745e-18 0 0 0 
1.47478e-18 -3.59479e-20 0 0 -1.47478e-18 0 0 0 
1.43348e-18 -3.58372e-20 0 0 -1.43348e-18 0 0 0 
1.44698e-18 -3.61743e-20 0 0 -1.44698e-18 0 0 0 
1.38835e-18 -3.47088e-20 0 0 -1.38835e-18 0 0 0 
1.37053e-18 -3.42635e-20 0 0 -1.37053e-18 0 0 0 
1.42983e-18 -1.22966e-18 0 0 -1.42983e-18 0 0 1.31907e-30 
1.43626e-18 -6.82224e-19 0 0 -1.43626e-18 0 0 1.32339e-30 
1.43462e-18 -6.81443e-19 0 0 -1.43462e-18 0 0 0 
1.42686e-18 -6.7776e-19 0 0 -1.42686e-18 0 0 0 
1.42665e-18 -6.95492e-19 0 0 -1.42665e-18 0 0 0 
1.44012e-18 -1.23851e-18 0 0 -1.44012e-18 0 0 1.32792e-30 
1.44104e-18 -6.84495e-19 0 0 -1.44104e-18 0 0 0 
1.42913e-18 -6.78835e-19 0 0 -1.42913e-18 0 0 0 
1.44039e-18 -6.84186e-19 0 0 -1.44039e-18 0 0 0 
1.43468e-18 -6.99407e-19 0 0 -1.43468e-18 0 0 0 
1.44908e-18 -3.6227e-20 0 0 -1.44908e-18 0 0 1.3317e-30 
1.38359e-18 -3.45897e-20 0 0 -1.38359e-18 0 0 0 
1.51552e-18 -3.78881e-20 0 0 -1.51552e-18 0 0 1.39414e-30 
3.70545e-21 0 0 -2.16769e-20 0 0 -3.70545e-21 0 
3.61362e-20 4.51703e-23 0 0 3.61362e-20 0 0 0 
2.28654e-20 5.43054e-22 0 0 2.28654e-20 0 0 0 
0 0 0 0 0 0 0 0 
1.99508e-20 4.73831e-22 0 0 1.99508e-20 0 0 0 
3.28135e-20 7.79321e-22 0 0 3.28135e-20 0 0 0 
1.21149e-20 2.87729e-22 0 0 1.21149e-20 0 0 0 
4.42882e-20 1.05185e-21 0 0 4.42882e-20 0 0 0 
8.86933e-21 2.10646e-22 0 0 8.86933e-21 0 0 0 
4.49418e-20 1.06737e-21 0 0 4.49418e-20 0 0 0 
5.04122e-20 6.14399e-22 0 0 5.04122e-20 0 0 0 
8.29876e-21 1.97096e-22 0 0 8.29876e-21 0 0 7.57565e-33 
1.79828e-20 4.27092e-22 0 0 1.79828e-20 0 0 0 
2.30504e-20 5.47446e-22 0 0 2.30504e-20 0 0 0 
5.49991e-20 1.30623e-21 0 0 5.49991e-20 0 0 0 
1.82191e-20 4.32704e-22 0 0 1.82191e-20 0 0 0 
2.58292e-20 6.13443e-22 0 0 2.58292e-20 0 0 0 
3.25188e-20 7.72323e-22 0 0 3.25188e-20 0 0 0 
2.70557e-20 3.38197e-23 0 0 2.70557e-20 0 0 0 
2.83128e-20 6.7243e-22 0 0 2.83128e-20 0 0 0 
1.636e-20 3.88549e-22 0 0 1.636e-20 0 0 0 
2.64187e-20 3.30234e-23 0 0 2.64187e-20 0 0 0 
1.5888e-20 3.7734e-22 0 0 1.5888e-20 0 0 0 
2.45298e-20 5.82582e-22 0 0 2.45298e-20 0 0 0 
1.84781e-20 2.30976e-23 0 0 1.84781e-20 0 0 0 
9.63539e-21 2.28841e-22 0 0 9.63539e-21 0 0 0 
1.06246e-20 2.52336e-22 0 0 1.06246e-20 0 0 0 
2.66793e-20 3.33492e-23 0 0 2.66793e-20 0 0 0 
7.00637e-21 8.75799e-24 0 0 7.00637e-21 0 0 0 
1.53222e-20 3.63902e-22 0 0 1.53222e-20 0 0 0 
1.14839e-20 2.72742e-22 0 0 1.14839e-20 0 0 0 
2.54058e-20 6.03389e-22 0 0 2.54058e-20 0 0 0 
2.25486e-20 5.35528e-22 0 0 2.25486e-20 0 0 0 
0 0 0 0 0 0 0 0 
1.34796e-20 3.2014e-22 0 0 1.34796e-20 0 0 0 
1.45733e-20 3.46116e-22 0 0 1.45733e-20 0 0 0 
7.8085e-21 9.76064e-24 0 0 7.8085e-21 0 0 0 
4.33764e-20 5.42206e-23 0 0 4.33764e-20 0 0 0 
2.0547e-20 4.8799e-22 0 0 2.0547e-20 0 0 0 
1.74268e-20 4.13887e-22 0 0 1.74268e-20 0 0 0 
2.0023e-20 4.75546e-22 0 0 2.0023e-20 0 0 0 
0 0 0 0 0 0 0 0 
1.5618e-20 3.70927e-22 0 0 1.5618e-20 0 0 0 
1.7649e-20 4.19165e-22 0 0 1.7649e-20 0 0 0 
4.77558e-20 5.96948e-23 0 0 4.77558e-20 0 0 0 
3.88813e-20 9.2343e-22 0 0 3.88813e-20 0 0 0 
2.55076e-20 6.05805e-22 0 0 2.55076e-20 0 0 0 
3.01055e-20 7.15005e-22 0 0 3.01055e-20 0 0 0 
5.30584e-21 6.6323e-24 0 0 5.30584e-21 0 0 0 
5.18312e-21 1.26339e-22 0 0 5.18312e-21 0 0 0 
2.51255e-20 3.1407e-23 0 0 2.51255e-20 0 0 0 
2.57928e-20 6.287e-22 0 0 2.57928e-20 0 0 2.35998e-32 
4.03462e-20 9.58226e-22 0 0 4.03462e-20 0 0 0 
3.58594e-20 8.74073e-22 0 0 3.58594e-20 0 0 0 
4.31173e-20 1.05098e-21 0 0 4.31173e-20 0 0 4.05979e-32 
2.23699e-20 5.31287e-22 0 0 2.23699e-20 0 0 0 
0 0 0 0 0 0 0 0 
9.93362e-21 2.42133e-22 0 0 9.93362e-21 0 0 0 
0 0 0 0 0 0 0 0 
9.75576e-21 1.21948e-23 0 0 9.75576e-21 0 0 0 
0 0 0 0 0 0 0 0 
4.58052e-20 5.72566e-23 0 0 4.58052e-20 0 0 0 
0 0 0 0 0 0 0 0 
7.12739e-21 8.9093e-24 0 0 7.12739e-21 0 0 0 
2.02391e-20 4.93329e-22 0 0 2.02391e-20 0 0 0 
2.4325e-20 5.77721e-22 0 0 2.4325e-20 0 0 0 
3.9838e-20 4.97977e-23 0 0 3.9838e-20 0 0 0 
2.50899e-20 6.11567e-22 0 0 2.50899e-20 0 0 0 
2.93918e-20 6.98058e-22 0 0 2.93918e-20 0 0 0 
4.28285e-20 5.35357e-23 0 0 4.28285e-20 0 0 0 
2.68401e-20 6.54229e-22 0 0 2.68401e-20 0 0 0 
1.01757e-20 2.41673e-22 0 0 1.01757e-20 0 0 9.49624e-33 
7.20995e-21 1.75743e-22 0 0 7.20995e-21 0 0 0 
1.11901e-20 2.65767e-22 0 0 1.11901e-20 0 0 1.02698e-32 
1.67832e-20 3.98602e-22 0 0 1.67832e-20 0 0 0 
4.42274e-20 1.0504e-21 0 0 4.42274e-20 0 0 0 
3.75546e-20 8.91926e-22 0 0 3.75546e-20 0 0 0 
1.04289e-20 2.47688e-22 0 0 1.04289e-20 0 0 0 
1.30288e-20 3.09434e-22 0 0 1.30288e-20 0 0 1.15235e-32 
2.87193e-20 7.00031e-22 0 0 2.87193e-20 0 0 2.66148e-32 
9.97485e-21 2.43138e-22 0 0 9.97485e-21 0 0 0 
1.23972e-19 7.74829e-23 0 0 1.23972e-19 0 0 0 
2.56069e-20 3.12084e-22 0 0 2.56069e-20 0 0 0 
3.42475e-19 -3.59596e-19 -4.40413e-19 -4.40413e-19 -1.71237e-19 -2.09722e-19 -2.09722e-19 -1.14937e-31 
3.45639e-21 0 0 -5.11126e-19 0 0 -3.45639e-21 0 
2.34904e-21 0 4.75884e-19 -4.75884e-19 0 1.66102e-21 -1.66102e-21 -1.20038e-34 
3.4215e-19 -3.59255e-19 4.39995e-19 4.39995e-19 -1.71075e-19 2.09523e-19 2.09523e-19 -1.15562e-31 
3.4801e-21 0 0 5.14633e-19 0 0 3.4801e-21 0 
2.9026e-21 0 -2.64766e-19 2.64766e-19 0 -2.05245e-21 2.05245e-21 1.84325e-34 
3.95874e-21 0 -2.31587e-20 0 0 -3.95874e-21 0 0 
3.91238e-21 0 2.28874e-20 0 0 3.91238e-21 0 0 
3.6348e-21 0 0 -2.07184e-20 0 0 -3.6348e-21 0 
3.69398e-21 0 0 2.10557e-20 0 0 3.69398e-21 0 
3.74408e-21 0 0 -2.13413e-20 0 0 -3.74408e-21 0 
3.78717e-21 0 0 2.15868e-20 0 0 3.78717e-21 0 
3.80636e-21 0 0 2.16962e-20 0 0 3.80636e-21 0 
3.75076e-21 0 0 -2.13793e-20 0 0 -3.75076e-21 0 
3.60856e-21 0 0 -2.05688e-20 0 0 -3.60856e-21 0 
3.538e-21 0 0 2.01666e-20 0 0 3.538e-21 0 
3.73814e-21 0 0 -2.13074e-20 0 0 -3.73814e-21 0 
3.68793e-21 0 0 2.10212e-20 0 0 3.68793e-21 0 
3.98147e-21 0 -2.26944e-20 0 0 -3.98147e-21 0 0 
3.77194e-21 0 2.15e-20 0 0 3.77194e-21 0 0 
4.03523e-21 0 0 -2.30008e-20 0 0 -4.03523e-21 0 
4.13416e-21 0 0 2.35647e-20 0 0 4.13416e-21 0 
3.99212e-21 0 -2.27551e-20 0 0 -3.99212e-21 0 0 
4.00733e-21 0 2.28418e-20 0 0 4.00733e-21 0 0 
3.80482e-21 0 -2.16875e-20 0 0 -3.80482e-21 0 0 
3.91874e-21 0 2.23368e-20 0 0 3.91874e-21 0 0 
3.97365e-21 0 2.32459e-20 0 0 3.97365e-21 0 0 
3.9409e-21 0 -2.30543e-20 0 0 -3.9409e-21 0 0 
3.77949e-21 0 2.211e-20 0 0 3.77949e-21 0 0 
3.79112e-21 0 -2.2178e-20 0 0 -3.79112e-21 0 0 
3.83216e-21 0 -2.18433e-20 0 0 -3.83216e-21 0 0 
3.67486e-21 0 2.09467e-20 0 0 3.67486e-21 0 0 
3.64244e-21 0 2.13083e-20 0 0 3.64244e-21 0 0 
3.73705e-21 0 -1.09309e-20 0 0 -3.73705e-21 0 0 
3.63527e-21 0 0 1.06332e-20 0 0 3.63527e-21 0 
4.5627e-21 0 0 -2.60074e-20 0 0 -4.5627e-21 0 
4.37087e-21 0 0 2.4914e-20 0 0 4.37087e-21 0 
3.86312e-21 0 0 2.25992e-20 0 0 3.86312e-21 0 
3.7971e-21 0 0 -2.2213e-20 0 0 -3.7971e-21 0 
3.85547e-21 0 -2.19762e-20 0 0 -3.85547e-21 0 0 
3.82196e-21 0 2.17852e-20 0 0 3.82196e-21 0 0 
4.16263e-21 0 -2.3727e-20 0 0 -4.16263e-21 0 0 
4.03219e-21 0 2.29835e-20 0 0 4.03219e-21 0 0 
3.90311e-21 0 0 2.22477e-20 0 0 3.90311e-21 0 
3.93668e-21 0 0 -2.24391e-20 0 0 -3.93668e-21 0 
4.14266e-21 0 -2.36132e-20 0 0 -4.14266e-21 0 0 
4.0319e-21 0 2.29819e-20 0 0 4.0319e-21 0 0 
3.91108e-21 0 0 2.22931e-20 0 0 3.91108e-21 0 
3.96157e-21 0 0 -2.25809e-20 0 0 -3.96157e-21 0 
3.8069e-21 0 -2.16993e-20 0 0 -3.8069e-21 0 0 
3.77555e-21 0 2.15206e-20 0 0 3.77555e-21 0 0 
4.16813e-21 0 0 2.37583e-20 0 0 4.16813e-21 0 
4.27291e-21 0 0 -2.43556e-20 0 0 -4.27291e-21 0 
4.02488e-21 0 2.29418e-20 0 0 4.02488e-21 0 0 
3.97961e-21 0 -2.26838e-20 0 0 -3.97961e-21 0 0 
3.74662e-21 0 2.13558e-20 0 0 3.74662e-21 0 0 
3.6944e-21 0 -2.10581e-20 0 0 -3.6944e-21 0 0 
4.04577e-21 0 0 -2.30609e-20 0 0 -4.04577e-21 0 
4.09595e-21 0 0 2.33469e-20 0 0 4.09595e-21 0 
4.06609e-21 0 0 2.31767e-20 0 0 4.06609e-21 0 
3.92383e-21 0 0 -2.23659e-20 0 0 -3.92383e-21 0 
4.51079e-21 0 0 2.57115e-20 0 0 4.51079e-21 0 
4.00975e-21 0 0 -2.28556e-20 0 0 -4.00975e-21 0 
4.15021e-21 0 -2.36562e-20 0 0 -4.15021e-21 0 0 
3.99885e-21 0 2.27935e-20 0 0 3.99885e-21 0 0 
3.95361e-21 0 -2.25356e-20 0 0 -3.95361e-21 0 0 
3.84098e-21 0 2.18936e-20 0 0 3.84098e-21 0 0 
3.6226e-21 0 2.11922e-20 0 0 3.6226e-21 0 0 
3.54566e-21 0 0 -2.07421e-20 0 0 -3.54566e-21 0 
3.78414e-21 0 -2.21372e-20 0 0 -3.78414e-21 0 0 
3.79705e-21 0 2.22127e-20 0 0 3.79705e-21 0 0 
4.06187e-21 0 2.3762e-20 0 0 4.06187e-21 0 0 
3.96524e-21 0 -2.31966e-20 0 0 -3.96524e-21 0 0 
3.8137e-21 0 0 -2.23102e-20 0 0 -3.8137e-21 0 
3.86644e-21 0 0 2.26187e-20 0 0 3.86644e-21 0 
3.77815e-21 0 0 2.21022e-20 0 0 3.77815e-21 0 
3.68721e-21 0 0 -2.15702e-20 0 0 -3.68721e-21 0 
4.05465e-21 0 -2.31115e-20 0 0 -4.05465e-21 0 0 
4.34538e-21 0 2.47687e-20 0 0 4.34538e-21 0 0 
3.89616e-21 0 0 -2.27925e-20 0 0 -3.89616e-21 0 
3.97402e-21 0 0 2.3248e-20 0 0 3.97402e-21 0 
3.59159e-21 0 -1.05054e-20 0 0 -3.59159e-21 0 0 
3.90108e-21 0 -2.28213e-20 0 0 -3.90108e-21 0 0 
3.89609e-21 0 2.27921e-20 0 0 3.89609e-21 0 0 
3.79215e-21 0 -2.21841e-20 0 0 -3.79215e-21 0 0 
3.78188e-21 0 2.2124e-20 0 0 3.78188e-21 0 0 
3.88448e-21 0 -2.21416e-20 0 0 -3.88448e-21 0 0 
4.0021e-21 0 2.2812e-20 0 0 4.0021e-21 0 0 
3.90259e-21 0 0 -2.28302e-20 0 0 -3.90259e-21 0 
3.86257e-21 0 0 2.2596e-20 0 0 3.86257e-21 0 
4.27789e-21 0 2.4384e-20 0 0 4.27789e-21 0 0 
4.15001e-21 0 -2.3655e-20 0 0 -4.15001e-21 0 0 
3.79209e-21 0 0 2.16149e-20 0 0 3.79209e-21 0 
3.74382e-21 0 0 -2.13397e-20 0 0 -3.74382e-21 0 
3.62811e-21 0 0 2.12244e-20 0 0 3.62811e-21 0 
3.66306e-21 0 1.07145e-20 0 0 3.66306e-21 0 0 
4.08756e-21 0 -2.32991e-20 0 0 -4.08756e-21 0 0 
3.9667e-21 0 2.26102e-20 0 0 3.9667e-21 0 0 
3.78468e-21 0 2.15727e-20 0 0 3.78468e-21 0 0 
3.81312e-21 0 -2.17348e-20 0 0 -3.81312e-21 0 0 
3.73411e-21 0 2.12845e-20 0 0 3.73411e-21 0 0 
3.83052e-21 0 -2.18339e-20 0 0 -3.83052e-21 0 0 
3.84101e-21 0 0 -2.18938e-20 0 0 -3.84101e-21 0 
3.80441e-21 0 0 2.16852e-20 0 0 3.80441e-21 0 
4.33936e-21 0 2.47344e-20 0 0 4.33936e-21 0 0 
4.1852e-21 0 -2.38556e-20 0 0 -4.1852e-21 0 0 
3.83176e-21 0 0 -2.1841e-20 0 0 -3.83176e-21 0 
3.81058e-21 0 0 2.17203e-20 0 0 3.81058e-21 0 
3.71716e-21 0 2.11878e-20 0 0 3.71716e-21 0 0 
3.79593e-21 0 -2.16368e-20 0 0 -3.79593e-21 0 0 
4.03235e-21 0 -2.29844e-20 0 0 -4.03235e-21 0 0 
3.84848e-21 0 2.19363e-20 0 0 3.84848e-21 0 0 
3.81715e-21 0 0 -2.17578e-20 0 0 -3.81715e-21 0 
3.71741e-21 0 0 2.11893e-20 0 0 3.71741e-21 0 
3.87602e-21 0 0 -2.20933e-20 0 0 -3.87602e-21 0 
3.93724e-21 0 0 2.24423e-20 0 0 3.93724e-21 0 
3.64597e-21 0 0 2.0782e-20 0 0 3.64597e-21 0 
3.67348e-21 0 0 -2.09388e-20 0 0 -3.67348e-21 0 
3.71961e-21 0 -2.12018e-20 0 0 -3.71961e-21 0 0 
3.72181e-21 0 2.12143e-20 0 0 3.72181e-21 0 0 
3.55253e-21 0 0 2.02494e-20 0 0 3.55253e-21 0 
3.66668e-21 0 0 -2.09e-20 0 0 -3.66668e-21 0 
3.88232e-21 0 0 -2.21292e-20 0 0 -3.88232e-21 0 
4.02139e-21 0 0 2.29219e-20 0 0 4.02139e-21 0 
3.92499e-21 0 2.23724e-20 0 0 3.92499e-21 0 0 
3.86694e-21 0 -2.20416e-20 0 0 -3.86694e-21 0 0 
3.81601e-21 0 -2.17512e-20 0 0 -3.81601e-21 0 0 
3.78918e-21 0 2.15983e-20 0 0 3.78918e-21 0 0 
3.8265e-21 0 0 2.1811e-20 0 0 3.8265e-21 0 
3.80821e-21 0 0 -2.17068e-20 0 0 -3.80821e-21 0 
3.88777e-21 0 2.21603e-20 0 0 3.88777e-21 0 0 
3.9928e-21 0 -2.2759e-20 0 0 -3.9928e-21 0 0 
3.82445e-21 0 0 2.17994e-20 0 0 3.82445e-21 0 
3.87406e-21 0 0 -2.20822e-20 0 0 -3.87406e-21 0 
4.2387e-21 -5.74497e-24 0 -3.02007e-21 -8.06311e-24 0 -4.23869e-21 -7.91355e-35 
1.13071e-20 -1.38617e-22 -4.65766e-23 -2.08313e-21 -7.50555e-22 -2.52193e-22 -1.12793e-20 -1.71515e-35 
7.06063e-21 -5.06071e-23 -2.22623e-23 -1.30585e-21 -2.73384e-22 -1.20263e-22 -7.05431e-21 3.04592e-34 
1.30914e-20 -1.61218e-22 -1.07854e-22 -2.36908e-21 -8.87906e-22 -5.94006e-22 -1.30477e-20 -1.30843e-33 
5.08239e-21 -6.04865e-25 -1.81758e-27 -1.2706e-21 -2.41946e-24 -7.2703e-27 -5.08239e-21 -1.73334e-33 
4.88029e-21 -6.91412e-24 -3.62583e-23 -1.17223e-21 -2.87709e-23 -1.50878e-22 -4.87788e-21 -9.49045e-35 
4.62966e-21 -8.18414e-24 -2.58959e-23 -7.46307e-22 -5.07361e-23 -1.60537e-22 -4.62659e-21 3.14196e-35 
4.80645e-21 -1.56771e-23 -3.78073e-23 -8.68494e-22 -8.66644e-23 -2.09002e-22 -4.80113e-21 1.54098e-34 
7.73165e-21 -5.4604e-23 -2.43781e-23 -1.42995e-21 -2.94982e-22 -1.31695e-22 -7.7249e-21 8.17967e-34 
5.8199e-21 -3.25356e-23 -5.50519e-23 -1.04668e-21 -1.80573e-22 -3.05539e-22 -5.80907e-21 -1.51192e-33 
7.60515e-21 -7.26857e-23 -5.55774e-23 -1.38208e-21 -3.99094e-22 -3.05157e-22 -7.58854e-21 4.10464e-34 
3.57633e-21 -5.56987e-24 -1.35471e-23 -1.16959e-21 -1.70301e-23 -4.14207e-23 -3.57605e-21 -3.56415e-34 
5.27958e-21 -1.53069e-23 -9.84421e-24 -8.70312e-22 -9.28363e-23 -5.9705e-23 -5.27843e-21 2.6128e-34 
5.53e-21 -7.60145e-24 -2.62582e-23 -6.62604e-22 -6.33867e-23 -2.18961e-22 -5.5253e-21 -7.18469e-34 
3.24895e-21 -5.63745e-24 -9.16897e-24 -5.30587e-22 -3.45127e-23 -5.61329e-23 -3.24828e-21 5.04205e-35 
5.47576e-21 -1.73677e-24 0 -1.02671e-22 -9.26145e-23 0 -5.47498e-21 9.45934e-34 
5.40161e-21 -1.74564e-23 2.8326e-23 -9.88291e-22 -9.53556e-23 1.54731e-22 -5.39855e-21 -1.10049e-33 
4.74547e-21 -1.73898e-23 0 -1.69057e-21 -4.88109e-23 0 -4.74522e-21 3.78764e-34 
5.28474e-21 -6.73595e-25 1.69587e-23 -1.27309e-21 -2.79592e-24 7.03911e-23 -5.28427e-21 5.44331e-34 
4.64936e-21 -6.58695e-24 3.45426e-23 -1.11676e-21 -2.74095e-23 1.43738e-22 -4.64706e-21 5.00885e-35 
8.59578e-21 -8.22502e-23 7.0817e-23 -1.55554e-21 -4.53406e-22 3.9038e-22 -8.57493e-21 3.49234e-34 
6.20934e-21 -4.39097e-23 2.26888e-23 -1.14633e-21 -2.37625e-22 1.22784e-22 -6.20358e-21 -2.81133e-34 
7.49988e-21 -6.48944e-23 8.22125e-23 -1.34131e-21 -3.61754e-22 4.58294e-22 -7.47712e-21 1.19722e-33 
5.11093e-21 -2.55601e-23 3.22303e-23 -9.32214e-22 -1.39999e-22 1.76533e-22 -5.10596e-21 -1.6309e-34 
5.30377e-21 -1.03238e-23 2.96665e-23 -8.54975e-22 -6.39997e-23 1.8391e-22 -5.30019e-21 6.59803e-34 
4.57681e-21 -7.9281e-24 8.53383e-24 -7.54463e-22 -4.80886e-23 5.17627e-23 -4.57626e-21 -1.53709e-35 
5.81756e-21 -5.43793e-23 0 -2.07251e-21 -1.52591e-22 0 -5.81556e-21 1.30484e-33 
4.35288e-21 -1.4774e-24 0 -3.10143e-21 -2.07354e-24 0 -4.35288e-21 4.53474e-34 
4.70031e-21 -7.7405e-24 2.76094e-23 -1.14323e-21 -3.18144e-23 1.13478e-22 -4.69883e-21 4.92134e-34 
1.0896e-20 -1.29649e-22 0 -1.99193e-21 -7.07695e-22 0 -1.0873e-20 -9.47531e-34 
5.20478e-21 -7.05436e-24 3.7084e-21 0 -9.90083e-24 5.20477e-21 0 -3.62778e-34 
1.2171e-20 -1.49208e-22 2.2423e-21 -5.01354e-23 -8.07902e-22 1.21411e-20 -2.71463e-22 3.08727e-35 
6.23667e-21 -4.47013e-23 1.15346e-21 -1.96644e-23 -2.4148e-22 6.23109e-21 -1.06229e-22 -6.19451e-34 
1.39019e-20 -1.71199e-22 2.51576e-21 -1.14532e-22 -9.42878e-22 1.38555e-20 -6.30782e-22 -7.64125e-34 
3.71237e-21 -4.41817e-25 9.28093e-22 -1.32763e-27 -1.76727e-24 3.71237e-21 -5.31051e-27 3.52242e-34 
5.0427e-21 -7.14421e-24 1.21124e-21 -3.7465e-23 -2.97284e-23 5.0402e-21 -1.55899e-22 3.71709e-34 
3.98241e-21 -7.03996e-24 6.4197e-22 -2.22755e-23 -4.36429e-23 3.97977e-21 -1.38093e-22 -1.76735e-34 
5.70308e-21 -1.86016e-23 1.03051e-21 -4.48601e-23 -1.02831e-22 5.69676e-21 -2.47991e-22 -4.65795e-34 
6.45606e-21 -4.55953e-23 1.19404e-21 -2.03561e-23 -2.46315e-22 6.45042e-21 -1.09968e-22 5.51015e-34 
7.50757e-21 -4.19704e-23 1.35019e-21 -7.1016e-23 -2.32936e-22 7.4936e-21 -3.9414e-22 -1.51544e-33 
8.11963e-21 -7.76028e-23 1.47557e-21 -5.93371e-23 -4.26092e-22 8.1019e-21 -3.25801e-22 4.27856e-34 
3.62995e-21 -5.65338e-24 1.18712e-21 -1.37502e-23 -1.72854e-23 3.62967e-21 -4.20418e-23 2.96367e-34 
4.74626e-21 -1.37607e-23 7.82397e-22 -8.8498e-24 -8.34585e-23 4.74523e-21 -5.36739e-23 3.18915e-34 
5.09764e-21 -7.00712e-24 6.10798e-22 -2.42052e-23 -5.84308e-23 5.0933e-21 -2.01841e-22 -1.29958e-33 
3.94752e-21 -6.84958e-24 6.44671e-22 -1.11404e-23 -4.19335e-23 3.94671e-21 -6.82023e-23 8.0285e-34 
3.47579e-21 -1.10243e-24 6.51712e-23 0 -5.87879e-23 3.47529e-21 0 5.40534e-34 
4.6591e-21 -1.50568e-23 8.52439e-22 2.44323e-23 -8.22479e-23 4.65646e-21 1.33462e-22 -3.28763e-34 
4.66714e-21 -1.71028e-23 1.66267e-21 0 -4.80052e-23 4.66689e-21 0 2.38283e-34 
4.54092e-21 -5.78788e-25 1.09391e-21 1.45718e-23 -2.4024e-24 4.54052e-21 6.04837e-23 1.18333e-34 
5.08734e-21 -7.20745e-24 1.22196e-21 3.77966e-23 -2.99915e-23 5.08482e-21 1.57279e-22 -7.06511e-34 
8.82923e-21 -8.4484e-23 1.59778e-21 7.27403e-23 -4.65719e-22 8.80781e-21 4.00982e-22 3.24788e-34 
5.61048e-21 -3.96749e-23 1.03578e-21 2.05006e-23 -2.14707e-22 5.60528e-21 1.10942e-22 1.61823e-33 
7.99899e-21 -6.92131e-23 1.43057e-21 8.76836e-23 -3.85829e-22 7.97472e-21 4.88793e-22 4.3792e-34 
6.57097e-21 -3.28619e-23 1.19852e-21 4.14375e-23 -1.79992e-22 6.56458e-21 2.26963e-22 -4.33749e-34 
6.06831e-21 -1.1812e-23 9.78221e-22 3.3943e-23 -7.32254e-23 6.06422e-21 2.10421e-22 1.11145e-33 
5.07828e-21 -8.79676e-24 8.37128e-22 9.46886e-24 -5.33575e-23 5.07767e-21 5.74342e-23 3.84273e-36 
6.16786e-21 -5.76537e-23 2.1973e-21 0 -1.61779e-22 6.16574e-21 0 1.17685e-33 
4.52525e-21 -1.5359e-24 3.22424e-21 0 -2.15565e-24 4.52525e-21 0 4.7837e-34 
4.68023e-21 -7.70743e-24 1.13835e-21 2.74914e-23 -3.16785e-23 4.67876e-21 1.12993e-22 -2.81219e-34 
1.16927e-20 -1.39129e-22 2.13758e-21 0 -7.59442e-22 1.1668e-20 0 -9.61364e-34 
4.42556e-21 -5.99823e-24 0 3.15321e-21 -8.41856e-24 0 4.42555e-21 -3.99234e-34 
1.08032e-20 -1.32441e-22 4.45013e-23 1.99031e-21 -7.17112e-22 2.40956e-22 1.07767e-20 -7.20364e-34 
6.93683e-21 -4.97198e-23 2.1872e-23 1.28295e-21 -2.6859e-22 1.18154e-22 6.93062e-21 -4.38065e-34 
1.29738e-20 -1.59771e-22 1.06886e-22 2.34781e-21 -8.79935e-22 5.88673e-22 1.29306e-20 1.18631e-34 
4.273e-21 -5.08539e-25 1.52812e-27 1.06825e-21 -2.03415e-24 6.11249e-27 4.273e-21 4.48539e-34 
5.05509e-21 -7.16176e-24 3.7557e-23 1.21422e-21 -2.98014e-23 1.56282e-22 5.05258e-21 2.8735e-34 
3.65225e-21 -6.45632e-24 2.04288e-23 5.88748e-22 -4.00248e-23 1.26645e-22 3.64984e-21 -3.06341e-34 
4.62372e-21 -1.50811e-23 3.63699e-23 8.35476e-22 -8.33696e-23 2.01057e-22 4.6186e-21 -1.08569e-34 
7.48673e-21 -5.28743e-23 2.36059e-23 1.38466e-21 -2.85638e-22 1.27524e-22 7.48019e-21 1.05069e-33 
5.59538e-21 -3.12805e-23 5.29282e-23 1.0063e-21 -1.73607e-22 2.93752e-22 5.58497e-21 -1.23767e-33 
8.12262e-21 -7.76314e-23 5.93589e-23 1.47612e-21 -4.26249e-22 3.25921e-22 8.10488e-21 -2.53931e-34 
4.3863e-21 -6.83134e-24 1.66153e-23 1.43447e-21 -2.08871e-23 5.08018e-23 4.38596e-21 5.0363e-35 
4.9863e-21 -1.44566e-23 9.29737e-24 8.21966e-22 -8.76793e-23 5.63884e-23 4.98521e-21 1.3064e-34 
6.61804e-21 -9.09704e-24 3.14245e-23 7.92972e-22 -7.58582e-23 2.62042e-22 6.61241e-21 -1.03544e-33 
5.42427e-21 -9.41197e-24 1.5308e-23 8.8584e-22 -5.76206e-23 9.37165e-23 5.42316e-21 1.41177e-33 
2.99033e-21 -9.48458e-25 0 5.60688e-23 -5.05771e-23 0 2.98991e-21 -8.78367e-34 
4.37232e-21 -1.413e-23 -2.29284e-23 7.99969e-22 -7.71852e-23 -1.25247e-22 4.36984e-21 -6.05616e-34 
4.52357e-21 -1.65766e-23 0 1.61152e-21 -4.65284e-23 0 4.52333e-21 2.66735e-35 
5.15025e-21 -6.56454e-25 -1.65271e-23 1.24069e-21 -2.72477e-24 -6.85998e-23 5.14979e-21 4.89109e-34 
4.07642e-21 -5.77523e-24 -3.02859e-23 9.79143e-22 -2.40318e-23 -1.26025e-22 4.0744e-21 -4.92976e-34 
9.30802e-21 -8.90654e-23 -7.66849e-23 1.68443e-21 -4.90975e-22 -4.22727e-22 9.28545e-21 -5.58775e-35 
6.38751e-21 -4.51697e-23 -2.33398e-23 1.17923e-21 -2.44443e-22 -1.26307e-22 6.38158e-21 -6.58262e-34 
7.8314e-21 -6.77629e-23 -8.58464e-23 1.4006e-21 -3.77745e-22 -4.78552e-22 7.80763e-21 1.74815e-33 
5.28525e-21 -2.64319e-23 -3.33296e-23 9.6401e-22 -1.44774e-22 -1.82554e-22 5.28012e-21 -1.03059e-33 
5.88361e-21 -1.14525e-23 -3.29098e-23 9.48446e-22 -7.09966e-23 -2.04016e-22 5.87964e-21 7.06932e-34 
4.55848e-21 -7.89635e-24 -8.49966e-24 7.51442e-22 -4.7896e-23 -5.15554e-23 4.55793e-21 -1.6908e-34 
5.73976e-21 -5.36521e-23 0 2.04479e-21 -1.50551e-22 0 5.73779e-21 1.75638e-33 
4.76339e-21 -1.61673e-24 0 3.39392e-21 -2.26909e-24 0 4.76339e-21 2.16067e-34 
4.27805e-21 -7.04512e-24 -2.5129e-23 1.04053e-21 -2.89563e-23 -1.03283e-22 4.2767e-21 1.35402e-34 
1.05847e-20 -1.25945e-22 0 1.93501e-21 -6.87474e-22 0 1.05623e-20 -2.90484e-34 
4.77224e-21 -6.46811e-24 -3.40022e-21 0 -9.07803e-24 -4.77223e-21 0 -1.07589e-34 
1.19512e-20 -1.46514e-22 -2.2018e-21 4.92299e-23 -7.93311e-22 -1.19219e-20 2.6656e-22 8.9531e-34 
5.83267e-21 -4.18057e-23 -1.07874e-21 1.83906e-23 -2.25838e-22 -5.82745e-21 9.93474e-23 2.0192e-34 
1.45194e-20 -1.78804e-22 -2.62751e-21 1.19619e-22 -9.84763e-22 -1.4471e-20 6.58803e-22 -1.0956e-33 
3.67328e-21 -4.37165e-25 -9.1832e-22 1.31365e-27 -1.74866e-24 -3.67328e-21 5.25459e-27 3.14231e-34 
4.23702e-21 -6.00277e-24 -1.01772e-21 3.14791e-23 -2.49787e-23 -4.23492e-21 1.30991e-22 3.05803e-34 
4.32052e-21 -7.63766e-24 -6.96474e-22 2.41667e-23 -4.73483e-23 -4.31766e-21 1.49817e-22 -3.96672e-34 
5.5567e-21 -1.81241e-23 -1.00406e-21 4.37086e-23 -1.00192e-22 -5.55054e-21 2.41626e-22 -1.64604e-34 
6.87142e-21 -4.85288e-23 -1.27086e-21 2.16658e-23 -2.62162e-22 -6.86542e-21 1.17043e-22 5.3048e-34 
7.43023e-21 -4.1538e-23 -1.33628e-21 7.02844e-23 -2.30537e-22 -7.4164e-21 3.9008e-22 -1.81782e-33 
7.81398e-21 -7.46816e-23 -1.42003e-21 5.71035e-23 -4.10052e-22 -7.79691e-21 3.13537e-22 1.04355e-35 
4.26103e-21 -6.63624e-24 -1.39351e-21 1.61408e-23 -2.02905e-23 -4.26069e-21 4.93509e-23 -2.51815e-34 
4.72523e-21 -1.36997e-23 -7.7893e-22 8.81058e-24 -8.30887e-23 -4.7242e-21 5.3436e-23 7.76154e-34 
6.66567e-21 -9.16252e-24 -7.98679e-22 3.16507e-23 -7.64042e-23 -6.66001e-21 2.63928e-22 -1.46335e-33 
3.99015e-21 -6.92354e-24 -6.51633e-22 1.12607e-23 -4.23863e-23 -3.98933e-21 6.89388e-23 1.70654e-34 
4.72027e-22 -1.49715e-25 -8.85052e-24 0 -7.98365e-24 -4.71959e-22 0 2.70267e-34 
4.68486e-21 -1.514e-23 -8.57152e-22 -2.45673e-23 -8.27026e-23 -4.6822e-21 -1.34199e-22 -7.89031e-34 
4.34233e-21 -1.59125e-23 -1.54696e-21 0 -4.46643e-23 -4.3421e-21 0 1.84936e-34 
4.99446e-21 -6.36596e-25 -1.20316e-21 -1.60272e-23 -2.64235e-24 -4.99401e-21 -6.65247e-23 3.28702e-34 
4.39186e-21 -6.22214e-24 -1.05491e-21 -3.26295e-23 -2.58915e-23 -4.38969e-21 -1.35778e-22 -4.37615e-34 
1.0014e-20 -9.58212e-23 -1.8122e-21 -8.25016e-23 -5.28216e-22 -9.98976e-21 -4.54791e-22 6.63545e-34 
6.15358e-21 -4.35154e-23 -1.13604e-21 -2.2485e-23 -2.35491e-22 -6.14787e-21 -1.21681e-22 1.24453e-33 
7.84238e-21 -6.78579e-23 -1.40256e-21 -8.59668e-23 -3.78274e-22 -7.81858e-21 -4.79223e-22 6.60412e-34 
6.81722e-21 -3.40934e-23 -1.24344e-21 -4.29904e-23 -1.86738e-22 -6.8106e-21 -2.35469e-22 -5.30909e-34 
4.9339e-21 -9.60386e-24 -7.95352e-22 -2.75977e-23 -5.95366e-23 -4.93057e-21 -1.71084e-22 1.12324e-33 
4.4419e-21 -7.69442e-24 -7.32225e-22 -8.28229e-24 -4.66712e-23 -4.44137e-21 -5.0237e-23 -4.227e-34 
5.91497e-21 -5.52898e-23 -2.10721e-21 0 -1.55146e-22 -5.91293e-21 0 1.33329e-33 
4.88179e-21 -1.65691e-24 -3.47828e-21 0 -2.32549e-24 -4.88179e-21 0 3.28102e-34 
4.09044e-21 -6.73617e-24 -9.94899e-22 -2.4027e-23 -2.76865e-23 -4.08916e-21 -9.87541e-23 -1.22383e-34 
1.09447e-20 -1.30228e-22 -2.00082e-21 0 -7.10856e-22 -1.09216e-20 0 -4.94515e-34 
3.61986e-20 0 -3.02378e-20 -3.02378e-20 0 -2.55962e-20 -2.55962e-20 1.81376e-32 
0 0 0 0 0 0 0 0 
0 0 0 0 0 0 0 0 
0 0 0 0 0 0 0 0 
0 0 0 0 0 0 0 0 
0 0 0 0 0 0 0 0 
0 0 0 0 0 0 0 0 
0 0 0 0 0 0 0 0 
0 0 0 0 0 0 0 0 
0 0 0 0 0 0 0 0 
0 0 0 0 0 0 0 0 
0 0 0 0 0 0 0 0 
0 0 0 0 0 0 0 0 
0 0 0 0 0 0 0 0 
0 0 0 0 0 0 0 0 
0 0 0 0 0 0 0 0 
0 0 0 0 0 0 0 0 
0 0 0 0 0 0 0 0 
0 0 0 0 0 0 0 0 
0 0 0 0 0 0 0 0 
0 0 0 0 0 0 0 0 
0 0 0 0 0 0 0 0 
0 0 0 0 0 0 0 0 
0 0 0 0 0 0 0 0 
0 0 0 0 0 0 0 0 
0 0 0 0 0 0 0 0 
0 0 0 0 0 0 0 0 
0 0 0 0 0 0 0 0 
0 0 0 0 0 0 0 0 
0 0 0 0 0 0 0 0 
0 0 0 0 0 0 0 0 
0 0 0 0 0 0 0 0 
0 0 0 0 0 0 0 0 
0 0 0 0 0 0 0 0 
0 0 0 0 0 0 0 0 
0 0 0 0 0 0 0 0 
0 0 0 0 0 0 0 0 
0 0 0 0 0 0 0 0 
0 0 0 0 0 0 0 0 
0 0 0 0 0 0 0 0 
0 0 0 0 0 0 0 0 
0 0 0 0 0 0 0 0 
0 0 0 0 0 0 0 0 
0 0 0 0 0 0 0 0 
0 0 0 0 0 0 0 0 
0 0 0 0 0 0 0 0 
0 0 0 0 0 0 0 0 
3.70158e-20 0 3.09205e-20 3.09205e-20 0 2.61741e-20 2.61741e-20 1.88396e-32 
4.53201e-20 -1.85453e-21 -2.81045e-22 -1.04659e-20 -7.90471e-21 -1.19792e-21 -4.46094e-20 -2.23777e-32 
5.05854e-20 -3.07242e-21 -1.12192e-21 -1.70377e-20 -8.95853e-21 -3.27129e-21 -4.96783e-20 -1.47908e-32 
3.825e-20 -1.39974e-21 -2.46159e-22 -7.82839e-21 -6.72921e-21 -1.1834e-21 -3.76348e-20 -1.88832e-33 
7.90952e-20 -2.37577e-21 -1.89569e-21 -9.39238e-21 -1.9035e-20 -1.51886e-20 -7.52531e-20 -6.15202e-33 
9.64077e-20 -1.5982e-21 -9.45029e-22 -6.42685e-21 -2.30324e-20 -1.36192e-20 -9.262e-20 -5.73368e-33 
9.11838e-20 -1.60339e-21 -6.34839e-22 -6.59072e-21 -2.14608e-20 -8.49706e-21 -8.82141e-20 7.34328e-33 
5.5083e-20 -9.02081e-22 -3.30035e-22 -4.06814e-21 -1.18874e-20 -4.34911e-21 -5.36089e-20 5.73541e-33 
3.78676e-20 -1.18918e-21 -3.32873e-22 -6.53222e-21 -6.77377e-21 -1.89609e-21 -3.72085e-20 3.2839e-34 
4.16301e-20 -1.45009e-21 -3.88198e-22 -7.81029e-21 -7.59028e-21 -2.03197e-21 -4.08819e-20 -4.55967e-33 
4.33989e-20 -1.39493e-21 -6.15279e-22 -7.41543e-21 -7.9966e-21 -3.52716e-21 -4.25098e-20 1.3946e-33 
4.7474e-20 -1.58289e-21 -7.99284e-22 -8.08106e-21 -9.08296e-21 -4.58645e-21 -4.63707e-20 -2.61743e-34 
1.24756e-19 -2.88896e-21 -2.54671e-21 -1.43559e-20 -2.42482e-20 -2.13756e-20 -1.20495e-19 3.95195e-32 
4.45618e-20 -1.67249e-21 -9.66712e-22 -8.3588e-21 -8.68727e-21 -5.02131e-21 -4.34174e-20 -3.45522e-33 
4.8913e-20 -1.06536e-21 -3.71888e-22 -5.24586e-21 -9.71145e-21 -3.38999e-21 -4.78192e-20 1.10303e-32 
4.79265e-20 -1.32606e-21 -7.154e-22 -6.2484e-21 -9.88775e-21 -5.33436e-21 -4.6591e-20 -8.83368e-34 
7.06407e-20 -1.18721e-21 -5.6288e-22 -4.84785e-21 -1.66971e-20 -7.91644e-21 -6.8181e-20 -1.75974e-32 
5.53022e-20 -8.60734e-22 -3.78463e-22 -3.86228e-21 -1.19747e-20 -5.26526e-21 -5.37329e-20 -1.4155e-32 
5.39469e-20 -1.6606e-21 -7.38783e-22 -7.5394e-21 -1.15512e-20 -5.13902e-21 -5.24445e-20 -4.40687e-36 
5.82838e-20 -1.58928e-21 -1.08016e-21 -7.17247e-21 -1.24746e-20 -8.47844e-21 -5.62983e-20 3.94833e-33 