ITEM: TIMESTEP
210
ITEM: NUMBER OF SURFS
6916
ITEM: BOX BOUNDS oo rr rr
-0.35 0.35
-0.25 0.25
-0.25 0.25
ITEM: SURFS f_save[1] f_save[2] f_save[3] f_save[4] f_save[5] f_save[6] f_save[7] f_save[8] 
8.1102 -6.08519e-05 0 0 -8.1102 0 0 0 
3.91458 -2.93716e-05 0 0 -3.91458 0 0 0 
0 0 0 0 0 0 0 0 
0.939313 -1.36407e-05 0.000281912 4.31559e-06 0 0.939313 0 113.971 
0.780789 -4.41117e-05 0.000234317 -1.42147e-05 0 0.780789 0 334.155 
0.883916 -2.55518e-05 -0.000265285 4.43912e-06 0 -0.883916 0 178.059 
1.03886 -3.77733e-05 -0.000311765 -3.8872e-06 0 -1.03886 0 242.594 
0 0 0 0 0 0 0 0 
0 0 0 0 0 0 0 0 
0 0 0 0 0 0 0 0 
0.300849 -5.10192e-05 1.20681e-06 0.000175996 0 0 0.300849 173.271 
0.384716 -2.50952e-05 -8.37926e-06 0.000225059 0 0 0.384716 93.1269 
0 0 0 0 0 0 0 0 
13.5667 -3.30688e-05 0 0 -13.5667 0 0 0 
0 0 0 0 0 0 0 0 
66.5874 -8.32346e-06 -1.4499e-06 2.49265e-07 -66.5874 0 0 90195.7 
0 0 0 0 0 0 0 0 
0 0 0 0 0 0 0 0 
7.11726 -1.73483e-05 0 0 -7.11726 0 0 0 
20.4968 -4.99609e-05 -1.04673e-07 -5.91951e-07 -20.4968 0 0 5077.15 
0 0 0 0 0 0 0 0 
0 0 0 0 0 0 0 0 
6.24795 -1.48389e-05 0 0 -6.24795 0 0 0 
4.4444 -1.05555e-05 0 0 -4.4444 0 0 0 
0 0 0 0 0 0 0 0 
0 0 0 0 0 0 0 0 
0 0 0 0 0 0 0 0 
0 0 0 0 0 0 0 0 
26.5928 -6.48201e-05 0 0 -26.5928 0 0 0 
16.7088 -4.07277e-05 0 0 -16.7088 0 0 0 
0 0 0 0 0 0 0 0 
115.297 -1.44122e-05 0 0 -115.297 0 0 0 
7.95995 -1.89049e-05 1.04826e-06 -3.43385e-07 -7.95995 0 0 6332.53 
18.835 -4.47333e-05 1.33044e-08 -1.13463e-06 -18.835 0 0 4551.53 
19.9025 -4.72685e-05 -1.06491e-06 -1.54311e-06 -19.9025 0 0 9751.28 
0 0 0 0 0 0 0 0 
7.87298 -1.86984e-05 6.75232e-07 6.19861e-07 -7.87298 0 0 5326.41 
0 0 0 0 0 0 0 0 
9.65184 -2.29231e-05 0 0 -9.65184 0 0 0 
19.6576 -4.66867e-05 0 0 -19.6576 0 0 0 
11.3049 -2.68494e-05 0 0 -11.3049 0 0 0 
23.3529 -5.54632e-05 0 0 -23.3529 0 0 0 
17.4972 -4.15559e-05 -8.63562e-07 -1.3782e-06 -17.4972 0 0 5942.85 
26.4645 -6.28534e-05 3.07309e-06 1.10739e-06 -26.4645 0 0 2885.11 
3.54259 -8.41364e-06 -9.25144e-07 1.15585e-06 -3.54259 0 0 5596.96 
0 0 0 0 0 0 0 0 
13.88 -3.38325e-05 -5.07224e-07 1.12375e-07 -13.88 0 0 5196.5 
2.13428 -5.2023e-06 -6.67819e-07 -3.08498e-07 -2.13428 0 0 3825.39 
18.8993 -4.60672e-05 0 0 -18.8993 0 0 0 
8.18885 -1.99604e-05 0 0 -8.18885 0 0 0 
13.2759 -3.23601e-05 0 0 -13.2759 0 0 0 
7.58798 -1.84957e-05 1.03551e-07 -1.60331e-07 -7.58798 0 0 6577.74 
19.7829 -4.69843e-05 0 0 -19.7829 0 0 0 
6.32042 -1.5011e-05 0 0 -6.32042 0 0 0 
12.4704 -2.96174e-05 0 0 -12.4704 0 0 0 
0 0 0 0 0 0 0 0 
11.0113 -2.61519e-05 0 0 -11.0113 0 0 0 
0 0 0 0 0 0 0 0 
6.98925 -1.65994e-05 0 0 -6.98925 0 0 0 
24.7835 -5.88607e-05 0 0 -24.7835 0 0 0 
5.96206 -1.45325e-05 0 0 -5.96206 0 0 0 
8.64653 -2.1076e-05 0 0 -8.64653 0 0 0 
11.8044 -2.87733e-05 0 0 -11.8044 0 0 0 
13.3147 -3.24547e-05 0 0 -13.3147 0 0 0 
0 0 0 0 0 0 0 0 
7.10826 -1.73264e-05 0 0 -7.10826 0 0 0 
5.9011 -1.4384e-05 0 0 -5.9011 0 0 0 
2.65383 -6.46874e-06 5.4946e-07 5.09295e-07 -2.65383 0 0 3641.09 
17.0595 -4.05163e-05 9.99415e-07 -1.40893e-07 -17.0595 0 0 5137.64 
6.47565 -1.53797e-05 -1.22716e-06 -2.62941e-06 -6.47565 0 0 9732.28 
12.2432 -2.9843e-05 2.32614e-07 8.50284e-07 -12.2432 0 0 6246.4 
4.24164 -1.03391e-05 0 0 -4.24164 0 0 0 
1.99014 -4.72657e-06 1.82941e-07 -3.43279e-07 -1.99014 0 0 3252.68 
6.75992 -1.60548e-05 0 0 -6.75992 0 0 0 
12.7221 -3.101e-05 0 0 -12.7221 0 0 0 
6.47454 -1.57817e-05 -1.72437e-06 4.63671e-07 -6.47454 0 0 9781.95 
26.7949 -6.53126e-05 7.20458e-07 1.0925e-06 -26.7949 0 0 11191.5 
9.06382 -2.20931e-05 6.00636e-07 8.62894e-07 -9.06382 0 0 4945.04 
9.31827 -2.21309e-05 0 0 -9.31827 0 0 0 
19.2881 -4.58091e-05 0 0 -19.2881 0 0 0 
0 0 0 0 0 0 0 0 
10.8475 -2.57628e-05 0 0 -10.8475 0 0 0 
13.1207 -3.11617e-05 0 0 -13.1207 0 0 0 
8.30944 -1.9735e-05 -6.11921e-07 7.52855e-08 -8.30944 0 0 5730.9 
6.08342 -1.44482e-05 0 0 -6.08342 0 0 0 
10.1198 -2.40345e-05 1.6588e-07 -7.69645e-07 -10.1198 0 0 6101.59 
18.6086 -4.41954e-05 0 0 -18.6086 0 0 0 
6.66133 -1.58206e-05 0 0 -6.66133 0 0 0 
0 0 0 0 0 0 0 0 
12.1066 -2.95099e-05 0 0 -12.1066 0 0 0 
2.41781 -5.89345e-06 0 0 -2.41781 0 0 0 
24.169 -5.89122e-05 0 0 -24.169 0 0 0 
0 0 0 0 0 0 0 0 
5.12213 -1.21651e-05 6.63794e-07 4.63436e-07 -5.12213 0 0 5428.52 
18.3754 -4.47901e-05 0 0 -18.3754 0 0 0 
18.3291 -4.46772e-05 1.38273e-06 8.13336e-07 -18.3291 0 0 10199.1 
20.5351 -4.8771e-05 -7.18866e-08 -8.32993e-07 -20.5351 0 0 5054.67 
15.4867 -3.6781e-05 7.81819e-07 -3.57208e-07 -15.4867 0 0 2837.29 
0 0 0 0 0 0 0 0 
0 0 0 0 0 0 0 0 
13.2774 -3.15338e-05 0 0 -13.2774 0 0 0 
19.2104 -4.56247e-05 3.35605e-06 2.87611e-07 -19.2104 0 0 10337.8 
3.31895 -7.88253e-06 5.55339e-07 5.74623e-07 -3.31895 0 0 5118.66 
13.0171 -3.09156e-05 0 0 -13.0171 0 0 0 
0 0 0 0 0 0 0 0 
0 0 0 0 0 0 0 0 
11.7884 -2.79975e-05 2.38977e-06 1.89986e-07 -11.7884 0 0 9383.06 
0 0 0 0 0 0 0 0 
14.7404 -3.50085e-05 4.96934e-08 -7.65422e-07 -14.7404 0 0 6952.74 
3.95901 -9.40264e-06 -6.32384e-07 -1.01778e-06 -3.95901 0 0 6413.59 
0 0 0 0 0 0 0 0 
0 0 0 0 0 0 0 0 
20.2678 -4.81359e-05 0 0 -20.2678 0 0 0 
6.83201 -1.62261e-05 0 0 -6.83201 0 0 0 
0 0 0 0 0 0 0 0 
1.46114 -3.4702e-06 5.69405e-06 -7.14252e-07 -1.46114 0 0 2873.84 
0 0 0 0 0 0 0 0 
0 0 0 0 0 0 0 0 
14.2312 -3.37991e-05 8.31925e-07 3.63267e-06 -14.2312 0 0 3044.59 
6.21653 -1.47643e-05 0 0 -6.21653 0 0 0 
18.3439 -4.35668e-05 0 0 -18.3439 0 0 0 
7.13488 -1.69454e-05 -4.92608e-06 -1.79715e-06 -7.13488 0 0 3749.38 
0 0 0 0 0 0 0 0 
0 0 0 0 0 0 0 0 
3.38561 -8.04083e-06 -3.73587e-07 -1.11631e-06 -3.38561 0 0 5421.49 
4.6545 -1.10545e-05 0 0 -4.6545 0 0 0 
13.9995 -3.41237e-05 0 0 -13.9995 0 0 0 
6.48376 -1.58042e-05 0 0 -6.48376 0 0 0 
0 0 0 0 0 0 0 0 
0 0 0 0 0 0 0 0 
5.65065 -1.34203e-05 0 0 -5.65065 0 0 0 
6.30087 -1.49646e-05 0 0 -6.30087 0 0 0 
10.9506 -2.66921e-05 0 0 -10.9506 0 0 0 
17.0827 -4.16391e-05 0 0 -17.0827 0 0 0 
0 0 0 0 0 0 0 0 
0 0 0 0 0 0 0 0 
5.88208 -1.397e-05 0 0 -5.88208 0 0 0 
6.84808 -1.62642e-05 0 0 -6.84808 0 0 0 
0 0 0 0 0 0 0 0 
24.9751 -6.08768e-05 0 0 -24.9751 0 0 0 
0 0 0 0 0 0 0 0 
0 0 0 0 0 0 0 0 
10.2736 -2.43998e-05 3.45765e-08 1.71227e-07 -10.2736 0 0 5510.85 
9.71588 -2.30753e-05 4.30618e-07 -1.33697e-07 -9.71588 0 0 4218.92 
0 0 0 0 0 0 0 0 
12.6607 -3.08605e-05 -7.54402e-07 -1.66344e-06 -12.6607 0 0 10950.3 
0 0 0 0 0 0 0 0 
0 0 0 0 0 0 0 0 
14.0741 -3.34263e-05 0 0 -14.0741 0 0 0 
6.43155 -1.5275e-05 0 0 -6.43155 0 0 0 
24.2458 -5.90991e-05 0 0 -24.2458 0 0 0 
24.3078 -5.92501e-05 5.07731e-07 -4.17764e-07 -24.3078 0 0 11626.1 
0 0 0 0 0 0 0 0 
0 0 0 0 0 0 0 0 
0 0 0 0 0 0 0 0 
5.79873 -1.3772e-05 0 0 -5.79873 0 0 0 
6.14927 -1.46045e-05 0 0 -6.14927 0 0 0 
12.3296 -2.92828e-05 0 0 -12.3296 0 0 0 
0 0 0 0 0 0 0 0 
0 0 0 0 0 0 0 0 
6.44898 -1.57194e-05 0 0 -6.44898 0 0 0 
18.2928 -4.45887e-05 0 0 -18.2928 0 0 0 
16.2549 -3.96214e-05 -3.32889e-07 8.80132e-07 -16.2549 0 0 4800.59 
0 0 0 0 0 0 0 0 
0 0 0 0 0 0 0 0 
0 0 0 0 0 0 0 0 
6.47607 -1.53808e-05 0 0 -6.47607 0 0 0 
7.92296 -1.88171e-05 -1.12926e-06 -2.01341e-06 -7.92296 0 0 1284.42 
8.43315 -2.00288e-05 8.8137e-07 -1.75778e-07 -8.43315 0 0 3064.8 
9.32691 -2.21515e-05 0 0 -9.32691 0 0 0 
0 0 0 0 0 0 0 0 
0 0 0 0 0 0 0 0 
12.6656 -3.08723e-05 0 0 -12.6656 0 0 0 
0 0 0 0 0 0 0 0 
16.4635 -3.91008e-05 8.54691e-07 -1.90321e-06 -16.4635 0 0 9182.25 
6.45079 -1.53206e-05 0 0 -6.45079 0 0 0 
0 0 0 0 0 0 0 0 
0 0 0 0 0 0 0 0 
24.0032 -5.70077e-05 -5.1572e-07 8.9068e-08 -24.0032 0 0 5385.32 
0 0 0 0 0 0 0 0 
12.965 -3.0792e-05 1.28097e-06 -9.04916e-08 -12.965 0 0 6152.12 
10.4948 -2.49252e-05 9.68412e-07 -7.97299e-07 -10.4948 0 0 6232.02 
0 0 0 0 0 0 0 0 
0 0 0 0 0 0 0 0 
6.78975 -1.61257e-05 0 0 -6.78975 0 0 0 
20.018 -4.75428e-05 0 0 -20.018 0 0 0 
16.955 -4.02679e-05 0 0 -16.955 0 0 0 
6.77057 -1.60801e-05 0 0 -6.77057 0 0 0 
0 0 0 0 0 0 0 0 
0 0 0 0 0 0 0 0 
6.33197 -1.50385e-05 0 0 -6.33197 0 0 0 
3.75512 -8.91847e-06 4.55994e-07 2.83774e-07 -3.75512 0 0 6301.85 
0 0 0 0 0 0 0 0 
0 0 0 0 0 0 0 0 
32.5497 -7.73057e-05 0 0 -32.5497 0 0 0 
0 0 0 0 0 0 0 0 
0 0 0 0 0 0 0 0 
0 0 0 0 0 0 0 0 
10.0199 -2.44235e-05 0 0 -10.0199 0 0 0 
0 0 0 0 0 0 0 0 
18.0695 -4.29151e-05 0 0 -18.0695 0 0 0 
18.0567 -4.28847e-05 0 0 -18.0567 0 0 0 
119.052 -1.48814e-05 0 0 -119.052 0 0 0 
0 0 0 0 0 0 0 0 
0 0 0 0 0 0 0 0 
3.00025 -7.12557e-06 -1.38836e-06 -2.65091e-06 -3.00025 0 0 5978.8 
0 0 0 0 0 0 0 0 
0 0 0 0 0 0 0 0 
0 0 0 0 0 0 0 0 
0 0 0 0 0 0 0 0 
6.24252 -1.4826e-05 0 0 -6.24252 0 0 0 
13.8997 -3.30117e-05 -9.00192e-07 1.37334e-06 -13.8997 0 0 6801.53 
0 0 0 0 0 0 0 0 
0 0 0 0 0 0 0 0 
19.9911 -4.74788e-05 0 0 -19.9911 0 0 0 
12.6571 -3.00607e-05 0 0 -12.6571 0 0 0 
4.18185 -9.93191e-06 0 0 -4.18185 0 0 0 
0 0 0 0 0 0 0 0 
0 0 0 0 0 0 0 0 
0 0 0 0 0 0 0 0 
10.6774 -2.53589e-05 -2.15384e-06 3.27864e-07 -10.6774 0 0 6515.26 
0 0 0 0 0 0 0 0 
0 0 0 0 0 0 0 0 
0 0 0 0 0 0 0 0 
0 0 0 0 0 0 0 0 
22.6805 -5.38662e-05 1.2867e-07 -2.02214e-07 -22.6805 0 0 5016.05 
16.8634 -4.00506e-05 0 0 -16.8634 0 0 0 
7.57844 -1.79988e-05 -8.035e-08 -1.16461e-06 -7.57844 0 0 14132 
0 0 0 0 0 0 0 0 
0 0 0 0 0 0 0 0 
19.9014 -4.7266e-05 0 0 -19.9014 0 0 0 
2.31464 -5.49729e-06 0 0 -2.31464 0 0 0 
6.87123 -1.63192e-05 0 0 -6.87123 0 0 0 
10.2046 -2.42359e-05 -9.41705e-07 5.35767e-07 -10.2046 0 0 5622.66 
0 0 0 0 0 0 0 0 
0 0 0 0 0 0 0 0 
4.13405 -9.81837e-06 1.08177e-06 5.74334e-07 -4.13405 0 0 5370.61 
1.0348 -2.45765e-06 -4.62319e-07 1.11129e-06 -1.0348 0 0 599.493 
0 0 0 0 0 0 0 0 
88.3845 -1.10481e-05 0 0 -88.3845 0 0 0 
19.3352 -4.59211e-05 0 0 -19.3352 0 0 0 
0 0 0 0 0 0 0 0 
4.43239 -1.0804e-05 0 0 -4.43239 0 0 0 
2.6433 -6.44305e-06 -1.53917e-06 1.58774e-06 -2.6433 0 0 4412.46 
0 0 0 0 0 0 0 0 
133.502 -1.66878e-05 0 0 -133.502 0 0 0 
6.76786 -1.60738e-05 -1.51012e-08 -5.08527e-08 -6.76786 0 0 1815.1 
0 0 0 0 0 0 0 0 
1.98312 -4.70992e-06 0 0 -1.98312 0 0 0 
18.2368 -4.33124e-05 0 0 -18.2368 0 0 0 
0 0 0 0 0 0 0 0 
0 0 0 0 0 0 0 0 
5.60415 -1.36601e-05 0 0 -5.60415 0 0 0 
9.95734 -2.42711e-05 0 0 -9.95734 0 0 0 
4.44734 -1.05625e-05 0 0 -4.44734 0 0 0 
3.8371 -9.11317e-06 1.49297e-06 4.13492e-07 -3.8371 0 0 6048.41 
0 0 0 0 0 0 0 0 
0 0 0 0 0 0 0 0 
16.438 -3.90404e-05 -1.80784e-09 -1.09189e-06 -16.438 0 0 7032.59 
6.28134 -1.49182e-05 0 0 -6.28134 0 0 0 
15.3669 -3.64964e-05 0 0 -15.3669 0 0 0 
6.59698 -1.56678e-05 0 0 -6.59698 0 0 0 
0 0 0 0 0 0 0 0 
0 0 0 0 0 0 0 0 
2.59168 -6.15525e-06 6.88572e-07 -7.32095e-07 -2.59168 0 0 3853.79 
15.5956 -3.70395e-05 -5.36755e-07 8.82762e-07 -15.5956 0 0 5875.73 
9.94578 -2.36213e-05 -8.76529e-07 -4.95083e-07 -9.94578 0 0 6583.77 
2.22079 -5.2744e-06 4.04383e-07 -4.68259e-07 -2.22079 0 0 3660.01 
0 0 0 0 0 0 0 0 
0 0 0 0 0 0 0 0 
9.77351 -2.32121e-05 0 0 -9.77351 0 0 0 
10.0721 -2.39212e-05 -5.62721e-08 -6.67968e-07 -10.0721 0 0 5424.55 
6.5463 -1.55476e-05 0 0 -6.5463 0 0 0 
6.48938 -1.54124e-05 0 0 -6.48938 0 0 0 
127.532 -1.59416e-05 0 0 -127.532 0 0 0 
0 0 0 0 0 0 0 0 
6.63536 -1.5759e-05 5.96368e-07 -4.16639e-07 -6.63536 0 0 4817.26 
6.44687 -1.53113e-05 0 0 -6.44687 0 0 0 
9.89426 -2.34989e-05 -5.49056e-07 2.89678e-07 -9.89426 0 0 4344.93 
16.4221 -3.90025e-05 -3.27354e-07 -7.03558e-07 -16.4221 0 0 4374.63 
0 0 0 0 0 0 0 0 
0 0 0 0 0 0 0 0 
0 0 0 0 0 0 0 0 
0.987195 -2.34459e-06 0 0 -0.987195 0 0 0 
6.23665 -1.4812e-05 0 0 -6.23665 0 0 0 
3.53217 -8.38889e-06 2.3471e-07 4.81146e-07 -3.53217 0 0 5807.46 
0 0 0 0 0 0 0 0 
0 0 0 0 0 0 0 0 
4.30539 -1.02253e-05 0 0 -4.30539 0 0 0 
19.2509 -4.5721e-05 0 0 -19.2509 0 0 0 
5.44182 -1.29243e-05 0 0 -5.44182 0 0 0 
5.66669 -1.34584e-05 0 0 -5.66669 0 0 0 
0 0 0 0 0 0 0 0 
0 0 0 0 0 0 0 0 
15.1403 -3.59582e-05 -3.33501e-07 6.96445e-07 -15.1403 0 0 3578.43 
9.13885 -2.17047e-05 4.63807e-07 4.76769e-07 -9.13885 0 0 3173.92 
0 0 0 0 0 0 0 0 
0 0 0 0 0 0 0 0 
17.1407 -4.07092e-05 0 0 -17.1407 0 0 0 
15.7278 -3.73536e-05 0 0 -15.7278 0 0 0 
0 0 0 0 0 0 0 0 
11.1987 -2.65969e-05 0 0 -11.1987 0 0 0 
74.9673 -9.37093e-06 -3.63753e-07 -6.44216e-07 -74.9673 0 0 122263 
0 0 0 0 0 0 0 0 
7.21867 -1.71443e-05 -3.86637e-07 -1.26721e-06 -7.21867 0 0 10995.4 
12.9778 -3.08222e-05 0 0 -12.9778 0 0 0 
0 0 0 0 0 0 0 0 
20.0053 -4.75126e-05 0 0 -20.0053 0 0 0 
0 0 0 0 0 0 0 0 
0 0 0 0 0 0 0 0 
4.4996 -1.06865e-05 0 0 -4.4996 0 0 0 
25.3467 -6.01983e-05 -9.16074e-08 3.7229e-07 -25.3467 0 0 7013.69 
7.01667 -1.66646e-05 0 0 -7.01667 0 0 0 
6.80116 -1.61528e-05 0 0 -6.80116 0 0 0 
0 0 0 0 0 0 0 0 
0 0 0 0 0 0 0 0 
22.7797 -5.41019e-05 0 0 -22.7797 0 0 0 
12.354 -2.93409e-05 0 0 -12.354 0 0 0 
0 0 0 0 0 0 0 0 
0 0 0 0 0 0 0 0 
6.13414 -1.45686e-05 0 0 -6.13414 0 0 0 
18.8119 -4.46785e-05 4.71053e-07 -7.97592e-07 -18.8119 0 0 5883.67 
0 0 0 0 0 0 0 0 
0 0 0 0 0 0 0 0 
13.9633 -3.31629e-05 0 0 -13.9633 0 0 0 
6.16224 -1.46353e-05 0 0 -6.16224 0 0 0 
0 0 0 0 0 0 0 0 
118.042 -1.47553e-05 0 0 -118.042 0 0 0 
3.87992 -9.2148e-06 4.15323e-07 6.44578e-07 -3.87992 0 0 6863.16 
11.4746 -2.72522e-05 -1.2643e-06 -6.45926e-07 -11.4746 0 0 8576.87 
0 0 0 0 0 0 0 0 
0 0 0 0 0 0 0 0 
12.8899 -3.14193e-05 0 0 -12.8899 0 0 0 
0 0 0 0 0 0 0 0 
9.39004 -0.00462862 3.92746e-06 -1.06849e-05 -9.39004 0 0 2035.09 
7.52648 -0.000366916 2.1214e-06 3.21562e-06 -7.52648 0 0 322.731 
12.2723 -3.06809e-05 0 0 -12.2723 0 0 0 
8.6411 -0.000410452 -1.39204e-06 2.11354e-06 -8.6411 0 0 1535.71 
11.5284 -2.88212e-05 0 0 -11.5284 0 0 0 
8.46274 -0.00040198 1.28838e-06 -2.14337e-06 -8.46274 0 0 1280.79 
6.7673 -1.69183e-05 -6.61008e-08 -3.6381e-07 -6.7673 0 0 4743.95 
8.56728 -0.000406946 -1.06534e-06 -1.44706e-06 -8.56728 0 0 1381.67 
27.7468 -6.93669e-05 1.30241e-06 -9.13639e-07 -27.7468 0 0 5635.45 
8.48344 -0.000402963 6.55512e-06 -1.03929e-05 -8.48344 0 0 1655.48 
4.77766 -1.19442e-05 2.30883e-07 1.11912e-07 -4.77766 0 0 3465.89 
12.5755 -0.000597335 4.67059e-06 6.81374e-07 -12.5755 0 0 3810.94 
1.0474 -2.6185e-06 0 0 -1.0474 0 0 0 
8.64533 -0.000410653 -4.93846e-07 -2.88881e-07 -8.64533 0 0 828.286 
31.4109 -7.85278e-05 0 0 -31.4109 0 0 2.81762e-11 
7.52708 -0.000366945 1.71275e-06 -1.39078e-07 -7.52708 0 0 1877.44 
9.01255 -0.00393272 -5.70206e-06 -6.27273e-06 -9.01255 0 0 1640.28 
6.76505 -0.000471597 -4.11823e-06 2.67773e-06 -6.76505 0 0 730.599 
11.9936 -0.00103145 -1.1841e-06 -1.95818e-07 -11.9936 0 0 2502.99 
11.4147 -0.00098166 -1.13041e-06 -2.70894e-06 -11.4147 0 0 2195.88 
9.56915 -0.000466496 -3.19268e-06 5.47924e-07 -9.56915 0 0 1443.96 
11.8625 -2.96563e-05 0 0 -11.8625 0 0 0 
11.7283 -0.000557093 1.5812e-08 -5.32357e-07 -11.7283 0 0 2710.89 
5.49953 -1.37489e-05 -4.84381e-07 1.61493e-07 -5.49953 0 0 4893.58 
9.25692 -0.000439704 2.31416e-07 6.34323e-06 -9.25692 0 0 1905.51 
3.3495 -8.37377e-06 4.88834e-07 -5.82586e-07 -3.3495 0 0 3338.35 
12.8206 -0.000608979 -4.2177e-07 -3.67543e-06 -12.8206 0 0 2003.21 
23.5406 -5.88515e-05 0 0 -23.5406 0 0 0 
8.16601 -0.000387885 2.27339e-06 -1.25804e-06 -8.16601 0 0 1192.71 
8.25145 -2.06287e-05 -4.41064e-07 2.29007e-07 -8.25145 0 0 4786.06 
12.2692 -0.000582786 2.90713e-06 -3.68741e-06 -12.2692 0 0 2217.9 
6.26296 -1.56574e-05 0 0 -6.26296 0 0 0 
8.07699 -0.000383657 -2.22849e-06 4.0635e-06 -8.07699 0 0 2471.74 
5.21665 -1.30417e-05 0 0 -5.21665 0 0 4.60019e-12 
8.06936 -0.000393381 3.29832e-06 1.5992e-06 -8.06936 0 0 1600.36 
8.44639 -0.000411762 5.22079e-06 -1.84614e-06 -8.44639 0 0 2289.4 
10.0834 -0.00497039 -2.44367e-07 5.22165e-06 -10.0834 0 0 2279.03 
10.7359 -0.000923282 2.1784e-06 4.03903e-06 -10.7359 0 0 2338.73 
10.0188 -0.000861621 3.3286e-07 8.35918e-07 -10.0188 0 0 1858.52 
9.96337 -0.00013094 1.12606e-06 1.27486e-07 -9.96337 0 0 2967.05 
7.82906 -0.000381666 1.0151e-06 -1.07365e-06 -7.82906 0 0 1577.53 
0 0 0 0 0 0 0 0 
9.6762 -0.00045962 -3.07154e-06 -3.83742e-07 -9.6762 0 0 2605.56 
10.0132 -2.5033e-05 -6.63641e-07 9.69261e-08 -10.0132 0 0 5263.13 
7.97321 -0.000378728 -4.92888e-07 4.13866e-06 -7.97321 0 0 3020.84 
0 0 0 0 0 0 0 0 
8.55257 -0.000406247 -1.72612e-06 -1.61787e-06 -8.55257 0 0 1423.76 
6.85011 -1.71253e-05 0 0 -6.85011 0 0 0 
11.2242 -0.000533149 -1.25745e-06 4.70075e-07 -11.2242 0 0 780.574 
8.62474 -2.15619e-05 -1.35885e-06 1.41432e-06 -8.62474 0 0 4381.55 
11.3132 -0.000537379 -3.67454e-06 1.05672e-06 -11.3132 0 0 2538.13 
3.44053 -8.60131e-06 0 0 -3.44053 0 0 0 
9.20601 -0.000437285 -8.6394e-07 -6.19787e-07 -9.20601 0 0 1840.05 
0 0 0 0 0 0 0 0 
5.78772 -0.000282151 -3.93007e-06 1.87745e-06 -5.78772 0 0 854.462 
9.13169 -0.00450127 -2.75703e-06 1.14421e-05 -9.13169 0 0 1789.1 
12.2124 -3.05311e-05 0 0 -12.2124 0 0 0 
10.905 -0.000517985 -5.61767e-07 7.46915e-08 -10.905 0 0 1857.38 
5.95253 -1.48813e-05 0 0 -5.95253 0 0 0 
8.91877 -0.000423641 -6.00711e-06 1.08077e-06 -8.91877 0 0 1275.52 
25.7681 -6.44204e-05 4.37251e-07 2.83447e-07 -25.7681 0 0 8105.69 
9.83293 -0.000467064 3.86607e-06 -8.17993e-07 -9.83293 0 0 1909.35 
5.92061 -1.48015e-05 0 0 -5.92061 0 0 0 
10.2895 -0.000488751 -1.72387e-06 -3.19711e-06 -10.2895 0 0 2239.9 
16.1338 -4.03346e-05 0 0 -16.1338 0 0 0 
6.81327 -0.000323631 1.91782e-06 1.74457e-06 -6.81327 0 0 1509.81 
6.70607 -1.67651e-05 -1.07108e-06 -2.83431e-07 -6.70607 0 0 10560.7 
8.7033 -0.000413407 1.01465e-06 7.84112e-07 -8.7033 0 0 1368.21 
10.6365 -2.65915e-05 0 0 -10.6365 0 0 9.20038e-12 
7.91112 -0.000385667 2.8701e-06 -9.3016e-07 -7.91112 0 0 2014.97 
0.247483 -2.79546e-05 0.000144777 -2.8707e-06 0 0.247483 0 82.202 
0.462233 -6.8717e-06 0.000135203 -1.04557e-06 0 0.462233 0 58.7899 
0.471184 -1.44829e-05 0.000137821 5.26969e-07 0 0.471184 0 77.8681 
0 0 0 0 0 0 0 0 
0 0 0 0 0 0 0 0 
1.49319 3.54634e-06 0 0 1.49319 0 0 0 
0 0 0 0 0 0 0 0 
0 0 0 0 0 0 0 0 
0 0 0 0 0 0 0 0 
0 0 0 0 0 0 0 0 
0 0 0 0 0 0 0 0 
0 0 0 0 0 0 0 0 
0 0 0 0 0 0 0 0 
0 0 0 0 0 0 0 0 
0 0 0 0 0 0 0 0 
0 0 0 0 0 0 0 0 
0.987227 2.34467e-06 0 0 0.987227 0 0 0 
0 0 0 0 0 0 0 0 
0 0 0 0 0 0 0 0 
0 0 0 0 0 0 0 0 
0 0 0 0 0 0 0 0 
0 0 0 0 0 0 0 0 
0 0 0 0 0 0 0 0 
0 0 0 0 0 0 0 0 
0.636146 1.51085e-06 0 0 0.636146 0 0 0 
0 0 0 0 0 0 0 0 
0 0 0 0 0 0 0 0 
0 0 0 0 0 0 0 0 
3.32532 7.89764e-06 -2.48336e-07 -5.63843e-07 3.32532 0 0 4760.31 
0 0 0 0 0 0 0 0 
0 0 0 0 0 0 0 0 
0 0 0 0 0 0 0 0 
0 0 0 0 0 0 0 0 
0 0 0 0 0 0 0 0 
0.996696 2.36716e-06 0 0 0.996696 0 0 0 
0 0 0 0 0 0 0 0 
0 0 0 0 0 0 0 0 
0 0 0 0 0 0 0 0 
4.82418 1.2362e-05 0 0 4.82418 0 0 0 
0 0 0 0 0 0 0 0 
0 0 0 0 0 0 0 0 
0 0 0 0 0 0 0 0 
2.14985 5.10589e-06 0 0 2.14985 0 0 0 
0 0 0 0 0 0 0 0 
0 0 0 0 0 0 0 0 
0 0 0 0 0 0 0 0 
0 0 0 0 0 0 0 0 
0 0 0 0 0 0 0 0 
0 0 0 0 0 0 0 0 
0 0 0 0 0 0 0 0 
0 0 0 0 0 0 0 0 
0 0 0 0 0 0 0 0 
0 0 0 0 0 0 0 0 
4.96211 1.1785e-05 0 0 4.96211 0 0 0 
0 0 0 0 0 0 0 0 
0 0 0 0 0 0 0 0 
0 0 0 0 0 0 0 0 
0 0 0 0 0 0 0 0 
0 0 0 0 0 0 0 0 
0 0 0 0 0 0 0 0 
2.62901 6.2439e-06 0 0 2.62901 0 0 0 
0 0 0 0 0 0 0 0 
0 0 0 0 0 0 0 0 
0 0 0 0 0 0 0 0 
0 0 0 0 0 0 0 0 
0 0 0 0 0 0 0 0 
0 0 0 0 0 0 0 0 
0 0 0 0 0 0 0 0 
0.935445 2.22168e-06 0 0 0.935445 0 0 0 
0 0 0 0 0 0 0 0 
0 0 0 0 0 0 0 0 
0 0 0 0 0 0 0 0 
0 0 0 0 0 0 0 0 
0 0 0 0 0 0 0 0 
0 0 0 0 0 0 0 0 
0.695359 1.65147e-06 0 0 0.695359 0 0 0 
0.703248 1.67021e-06 0 0 0.703248 0 0 0 
1.0802 2.56548e-06 0 0 1.0802 0 0 0 
0 0 0 0 0 0 0 0 
0 0 0 0 0 0 0 0 
0 0 0 0 0 0 0 0 
0 0 0 0 0 0 0 0 
0 0 0 0 0 0 0 0 
2.6356 6.25956e-06 3.03991e-08 -1.611e-06 2.6356 0 0 835.732 
0 0 0 0 0 0 0 0 
18.4785 2.30981e-06 0 0 18.4785 0 0 0 
0 0 0 0 0 0 0 0 
0 0 0 0 0 0 0 0 
3.8802 9.21548e-06 0 0 3.8802 0 0 0 
0 0 0 0 0 0 0 0 
0 0 0 0 0 0 0 0 
0 0 0 0 0 0 0 0 
0 0 0 0 0 0 0 0 
0 0 0 0 0 0 0 0 
1.12994 2.68362e-06 0 0 1.12994 0 0 0 
0 0 0 0 0 0 0 0 
0 0 0 0 0 0 0 0 
0 0 0 0 0 0 0 0 
3.33569 7.92229e-06 0 0 3.33569 0 0 0 
0 0 0 0 0 0 0 0 
0 0 0 0 0 0 0 0 
0 0 0 0 0 0 0 0 
0 0 0 0 0 0 0 0 
0 0 0 0 0 0 0 0 
1.24691 2.96141e-06 0 0 1.24691 0 0 0 
0 0 0 0 0 0 0 0 
0 0 0 0 0 0 0 0 
1.19477 2.83756e-06 -1.93466e-06 2.00108e-06 1.19477 0 0 2111.19 
0 0 0 0 0 0 0 0 
0 0 0 0 0 0 0 0 
0 0 0 0 0 0 0 0 
0.816408 1.93897e-06 -1.56065e-06 6.62841e-07 0.816408 0 0 577.999 
0 0 0 0 0 0 0 0 
0 0 0 0 0 0 0 0 
0 0 0 0 0 0 0 0 
0 0 0 0 0 0 0 0 
0 0 0 0 0 0 0 0 
0 0 0 0 0 0 0 0 
0 0 0 0 0 0 0 0 
0 0 0 0 0 0 0 0 
0 0 0 0 0 0 0 0 
2.35204 5.58611e-06 0 0 2.35204 0 0 0 
0 0 0 0 0 0 0 0 
0 0 0 0 0 0 0 0 
0 0 0 0 0 0 0 0 
0 0 0 0 0 0 0 0 
0 0 0 0 0 0 0 0 
0 0 0 0 0 0 0 0 
0 0 0 0 0 0 0 0 
0.461889 1.09699e-06 4.78538e-07 -1.14334e-06 0.461889 0 0 34.0098 
0 0 0 0 0 0 0 0 
0 0 0 0 0 0 0 0 
0 0 0 0 0 0 0 0 
0 0 0 0 0 0 0 0 
0 0 0 0 0 0 0 0 
0 0 0 0 0 0 0 0 
0 0 0 0 0 0 0 0 
7.13016 1.69342e-05 0 0 7.13016 0 0 0 
0 0 0 0 0 0 0 0 
0 0 0 0 0 0 0 0 
0 0 0 0 0 0 0 0 
0 0 0 0 0 0 0 0 
6.1476 1.46005e-05 0 0 6.1476 0 0 0 
0 0 0 0 0 0 0 0 
0 0 0 0 0 0 0 0 
0 0 0 0 0 0 0 0 
0 0 0 0 0 0 0 0 
0 0 0 0 0 0 0 0 
0 0 0 0 0 0 0 0 
0 0 0 0 0 0 0 0 
0 0 0 0 0 0 0 0 
0 0 0 0 0 0 0 0 
0 0 0 0 0 0 0 0 
0 0 0 0 0 0 0 0 
0 0 0 0 0 0 0 0 
0 0 0 0 0 0 0 0 
0 0 0 0 0 0 0 0 
0 0 0 0 0 0 0 0 
0 0 0 0 0 0 0 0 
0 0 0 0 0 0 0 0 
1.72972 4.10807e-06 0 0 1.72972 0 0 0 
0 0 0 0 0 0 0 0 
0.775579 1.842e-06 0 0 0.775579 0 0 0 
0 0 0 0 0 0 0 0 
0 0 0 0 0 0 0 0 
0 0 0 0 0 0 0 0 
0 0 0 0 0 0 0 0 
0 0 0 0 0 0 0 0 
1.5553 3.69384e-06 0 0 1.5553 0 0 0 
0 0 0 0 0 0 0 0 
0 0 0 0 0 0 0 0 
0 0 0 0 0 0 0 0 
0 0 0 0 0 0 0 0 
0 0 0 0 0 0 0 0 
0 0 0 0 0 0 0 0 
0 0 0 0 0 0 0 0 
0 0 0 0 0 0 0 0 
0 0 0 0 0 0 0 0 
0 0 0 0 0 0 0 0 
0 0 0 0 0 0 0 0 
0 0 0 0 0 0 0 0 
0 0 0 0 0 0 0 0 
0 0 0 0 0 0 0 0 
0 0 0 0 0 0 0 0 
0.994314 2.3615e-06 0 0 0.994314 0 0 0 
0 0 0 0 0 0 0 0 
0 0 0 0 0 0 0 0 
0 0 0 0 0 0 0 0 
0 0 0 0 0 0 0 0 
1.38633 3.29254e-06 0 0 1.38633 0 0 0 
0 0 0 0 0 0 0 0 
0 0 0 0 0 0 0 0 
0 0 0 0 0 0 0 0 
0 0 0 0 0 0 0 0 
0 0 0 0 0 0 0 0 
0 0 0 0 0 0 0 0 
0 0 0 0 0 0 0 0 
2.58816 6.30865e-06 0 0 2.58816 0 0 0 
0 0 0 0 0 0 0 0 
0 0 0 0 0 0 0 0 
0 0 0 0 0 0 0 0 
0 0 0 0 0 0 0 0 
0.746288 1.77245e-06 0 0 0.746288 0 0 0 
0 0 0 0 0 0 0 0 
0 0 0 0 0 0 0 0 
0 0 0 0 0 0 0 0 
0 0 0 0 0 0 0 0 
0 0 0 0 0 0 0 0 
0 0 0 0 0 0 0 0 
0 0 0 0 0 0 0 0 
0 0 0 0 0 0 0 0 
0 0 0 0 0 0 0 0 
0 0 0 0 0 0 0 0 
0 0 0 0 0 0 0 0 
0 0 0 0 0 0 0 0 
0 0 0 0 0 0 0 0 
0 0 0 0 0 0 0 0 
0 0 0 0 0 0 0 0 
0 0 0 0 0 0 0 0 
0 0 0 0 0 0 0 0 
0 0 0 0 0 0 0 0 
0 0 0 0 0 0 0 0 
0 0 0 0 0 0 0 0 
0 0 0 0 0 0 0 0 
0 0 0 0 0 0 0 0 
0.708497 1.68268e-06 1.55968e-06 -2.44956e-07 0.708497 0 0 2198.7 
0 0 0 0 0 0 0 0 
0.748715 1.825e-06 0 0 0.748715 0 0 0 
0 0 0 0 0 0 0 0 
0 0 0 0 0 0 0 0 
3.13669 7.6457e-06 0 0 3.13669 0 0 0 
1.08717 2.64999e-06 0 0 1.08717 0 0 0 
0 0 0 0 0 0 0 0 
2.98183 7.08189e-06 0 0 2.98183 0 0 0 
2.49032 5.91455e-06 0 0 2.49032 0 0 0 
0.543417 1.32458e-06 0 0 0.543417 0 0 0 
0 0 0 0 0 0 0 0 
0 0 0 0 0 0 0 0 
1.99011 4.72655e-06 0 0 1.99011 0 0 0 
0 0 0 0 0 0 0 0 
0 0 0 0 0 0 0 0 
0 0 0 0 0 0 0 0 
0 0 0 0 0 0 0 0 
0.282246 6.87976e-07 0 0 0.282246 0 0 0 
0 0 0 0 0 0 0 0 
0 0 0 0 0 0 0 0 
0 0 0 0 0 0 0 0 
0 0 0 0 0 0 0 0 
0 0 0 0 0 0 0 0 
0 0 0 0 0 0 0 0 
6.62091 1.57247e-05 0 0 6.62091 0 0 0 
0 0 0 0 0 0 0 0 
0 0 0 0 0 0 0 0 
0 0 0 0 0 0 0 0 
0 0 0 0 0 0 0 0 
0 0 0 0 0 0 0 0 
0 0 0 0 0 0 0 0 
0 0 0 0 0 0 0 0 
0 0 0 0 0 0 0 0 
0 0 0 0 0 0 0 0 
0 0 0 0 0 0 0 0 
1.15834 2.82346e-06 0 0 1.15834 0 0 0 
0 0 0 0 0 0 0 0 
0 0 0 0 0 0 0 0 
0 0 0 0 0 0 0 0 
0 0 0 0 0 0 0 0 
0 0 0 0 0 0 0 0 
0 0 0 0 0 0 0 0 
0 0 0 0 0 0 0 0 
13.1217 1.64022e-06 -1.86251e-07 2.26404e-06 13.1217 0 0 21234.7 
0 0 0 0 0 0 0 0 
0 0 0 0 0 0 0 0 
0 0 0 0 0 0 0 0 
0 0 0 0 0 0 0 0 
0 0 0 0 0 0 0 0 
0 0 0 0 0 0 0 0 
0 0 0 0 0 0 0 0 
0 0 0 0 0 0 0 0 
0 0 0 0 0 0 0 0 
0.341911 8.33406e-07 0 0 0.341911 0 0 0 
0 0 0 0 0 0 0 0 
0 0 0 0 0 0 0 0 
0 0 0 0 0 0 0 0 
0 0 0 0 0 0 0 0 
0 0 0 0 0 0 0 0 
0.318816 7.77118e-07 0 0 0.318816 0 0 0 
0 0 0 0 0 0 0 0 
0 0 0 0 0 0 0 0 
0 0 0 0 0 0 0 0 
0 0 0 0 0 0 0 0 
0 0 0 0 0 0 0 0 
0 0 0 0 0 0 0 0 
1.88811 4.48429e-06 0 0 1.88811 0 0 0 
1.19515 2.91319e-06 0 0 1.19515 0 0 0 
0 0 0 0 0 0 0 0 
1.73265 4.11506e-06 2.70956e-06 7.28539e-07 1.73265 0 0 1958.17 
0 0 0 0 0 0 0 0 
0.19163 4.67098e-07 0 0 0.19163 0 0 0 
0 0 0 0 0 0 0 0 
0 0 0 0 0 0 0 0 
0 0 0 0 0 0 0 0 
0 0 0 0 0 0 0 0 
0 0 0 0 0 0 0 0 
0 0 0 0 0 0 0 0 
0 0 0 0 0 0 0 0 
0 0 0 0 0 0 0 0 
0 0 0 0 0 0 0 0 
0 0 0 0 0 0 0 0 
1.08138 2.56829e-06 0 0 1.08138 0 0 0 
0 0 0 0 0 0 0 0 
0 0 0 0 0 0 0 0 
0 0 0 0 0 0 0 0 
0 0 0 0 0 0 0 0 
0 0 0 0 0 0 0 0 
0 0 0 0 0 0 0 0 
0 0 0 0 0 0 0 0 
0 0 0 0 0 0 0 0 
0 0 0 0 0 0 0 0 
0 0 0 0 0 0 0 0 
0 0 0 0 0 0 0 0 
0.343446 8.37154e-07 0 0 0.343446 0 0 0 
0 0 0 0 0 0 0 0 
7.43933 1.81333e-05 0 0 7.43933 0 0 0 
0 0 0 0 0 0 0 0 
0 0 0 0 0 0 0 0 
0 0 0 0 0 0 0 0 
1.69345 4.1278e-06 0 0 1.69345 0 0 0 
0 0 0 0 0 0 0 0 
0 0 0 0 0 0 0 0 
0.256329 -1.82688e-05 -0.000149952 6.86296e-06 0 -0.256329 0 79.0232 
0.461906 -1.4889e-05 -0.000270215 -4.01596e-06 0 -0.461906 0 56.5536 
2.31317 -0.000307018 0.000268448 -0.000274113 -1.15658 1.41652 -1.41652 762.452 
2.64623 -0.000376448 0.000302522 -0.000297575 -1.32312 1.62047 -1.62049 1094.53 
0.0566021 -0.000455846 0.000501745 0.000530867 0 0.0400237 0.0400237 64.3834 
0.057658 -0.000973365 0.0011664 0.00116974 1.36775e-09 0.0407704 0.0407704 63.3969 
0.0448985 -0.000219877 0.000187968 0.000205839 0 0.031748 0.031748 70.2777 
0.0636087 -0.000420006 0.000940637 -1.30809e-06 0 0.0636087 0 52.092 
0.0493196 -0.000384585 0.000729331 -4.74299e-06 0 0.0493196 0 48.626 
0.0559709 -0.000345335 -8.53611e-06 0.000827691 0 0 0.0559709 42.6071 
0.0529096 -0.000509417 -9.13118e-07 0.00078242 0 0 0.0529096 64.273 
0.0617626 -0.00095848 0.00122392 0.00127853 0 0.0436727 0.0436727 59.7032 
0.0564541 -0.000308765 0.000519609 0.000510303 -8.24147e-10 0.0399191 0.0399191 46.0505 
0.0441792 -0.000174095 0.000198786 0.000188712 0 0.0312394 0.0312394 51.8763 
2.17112 -0.000301892 -0.000249418 0.000248618 -1.08556 -1.32954 1.32954 956.213 
2.65668 -0.000366947 -0.000303691 0.000307747 -1.32834 -1.62687 1.62689 1064.74 
0.0551093 -0.00089498 -0.00110938 -0.0011235 0 -0.0389682 -0.0389682 55.9257 
0.0538883 -0.000423322 -0.000475097 -0.000508006 2.83908e-09 -0.0381048 -0.0381048 62.3091 
0.0504089 -0.000143713 -0.000214754 -0.000227385 0 -0.0356445 -0.0356444 40.3611 
0.0675484 -0.000380102 -0.000998897 8.09892e-06 0 -0.0675484 0 47.7926 
0.0540952 -0.000492771 -0.000799953 -4.08289e-06 0 -0.0540952 0 61.1409 
0.0655345 -0.000506254 -1.35838e-08 -0.000969116 0 0 -0.0655345 63.2998 
0.056855 -0.000439186 1.01466e-05 -0.000840764 0 0 -0.056855 54.8258 
0.0655504 -0.00035615 -0.000606814 -0.000589044 0 -0.0463511 -0.0463511 50.6126 
0.0547033 -0.000812582 -0.00111547 -0.00110096 -3.59573e-10 -0.0386811 -0.0386811 51.4795 
0.0569122 -0.000214078 -0.000247441 -0.000251738 0 -0.040243 -0.040243 62.3668 
0.371855 -2.97501e-05 1.51363e-06 -0.000217535 0 0 -0.371855 107.358 
0.562317 -3.85677e-05 -5.02885e-06 -0.000328955 0 0 -0.562317 124.42 
0.31481 -2.34631e-05 -0.000179441 1.13558e-06 0 -0.31481 0 101.727 
0.511895 -5.50732e-05 -0.00029178 3.30141e-06 0 -0.511895 0 168.19 
0.431144 -4.01671e-05 -7.43856e-06 0.000252219 0 0 0.431144 141.94 
0.496161 -2.90714e-05 -2.26365e-07 0.000290254 0 0 0.496161 124.852 
0.513232 -2.52577e-05 0.000292542 2.91589e-06 0 0.513232 0 121.623 
0.317685 -2.618e-05 0.000181081 -3.20021e-06 0 0.317685 0 83.8651 
0.242627 -2.04205e-05 0.000138297 2.40881e-06 0 0.242627 0 90.4658 
0.233634 -3.83325e-05 0.000133171 7.21373e-06 0 0.233634 0 114.367 
0.248515 -1.05776e-05 -3.90591e-06 -0.000141654 0 0 -0.248515 58.4466 
0.168528 -1.83792e-05 4.25188e-06 -9.6061e-05 0 0 -0.168528 58.4124 
0.207356 -2.15726e-05 -0.000118193 9.39592e-06 0 -0.207356 0 72.4021 
0.233112 -2.46345e-05 -0.000132874 -2.84974e-06 0 -0.233112 0 126.016 
0.244444 -9.42341e-06 -3.86846e-06 0.000139333 0 -4.79264e-08 0.244444 34.179 
0.138542 -3.80884e-05 4.76158e-06 7.89687e-05 0 -2.71629e-08 0.138542 133.706 
0.30378 -1.85558e-05 0.000173155 5.18836e-07 0 0.30378 0 53.9928 
0.327007 -2.22653e-05 0.000186394 5.80752e-06 0 0.327007 0 106.404 
0.327664 -5.62086e-05 4.11593e-06 -0.000186768 0 0 -0.327664 186.664 
0.331392 -8.72068e-06 -2.9467e-06 -0.000188893 0 0 -0.331392 39.8376 
0.293619 -1.24356e-05 -0.000167363 4.67068e-06 0 -0.293619 0 136.104 
0.373793 -5.34036e-05 -0.000213062 -9.75498e-06 0 -0.373793 0 183.873 
0.359444 -6.62478e-06 -4.7929e-07 0.000204883 0 0 0.359444 26.332 
0.308562 -2.24512e-05 -4.14179e-06 0.00017588 0 0 0.308562 81.2288 
0.352334 -3.12655e-05 -0.00020083 1.65953e-06 0 -0.352334 0 119.385 
0.533789 -4.58186e-05 -0.00030426 -6.66394e-06 0 -0.533789 0 197.024 
0.43514 -4.12602e-05 -2.29284e-06 0.00024803 0 0 0.43514 134.402 
0.56277 -2.75677e-05 7.89826e-07 0.000320779 0 0 0.56277 111.128 
0.384866 -1.18114e-05 0.000219374 -4.43366e-06 0 0.384866 0 39.5511 
0.462404 -3.51785e-05 0.00026357 -8.1883e-06 0 0.462404 0 150.752 
0.350838 -2.56694e-05 7.24559e-06 -0.000199978 0 0 -0.350838 102.682 
0.626596 -5.4244e-05 -2.39362e-06 -0.00035716 0 0 -0.626596 160.294 
0.487596 -6.31661e-05 0.00027793 -9.88518e-06 0 0.487596 0 190.16 
0.602704 -1.95142e-05 0.000343541 6.49927e-07 0 0.602704 0 48.7211 
0.451535 -3.7977e-05 1.82617e-05 -0.000257375 0 0 -0.451535 133.796 
0.489087 -2.75641e-05 5.02265e-06 -0.00027878 0 0 -0.489087 102.934 
0.49716 -2.01136e-05 -0.000283381 -1.10657e-06 0 -0.49716 0 77.5987 
0.682745 -4.66662e-05 -0.000389165 -4.27337e-07 0 -0.682745 0 137.758 
0.487556 -5.64092e-05 2.24564e-05 0.000277907 0 0 0.487556 177.937 
0.506644 -3.19945e-05 -1.09457e-05 0.000288787 0 0 0.506644 108.35 
0.402339 -2.60721e-05 0.000229333 2.77237e-06 0 0.402339 0 85.2283 
0.420102 -3.60877e-05 0.000239458 1.78824e-05 0 0.420102 0 129.582 
0.386136 -4.80067e-05 6.94146e-06 -0.000220097 0 0 -0.386136 170.074 
0.504637 -2.10633e-05 2.30865e-06 -0.000287643 0 0 -0.504637 75.6544 
0.405348 -2.44628e-05 -0.000231048 -1.11892e-05 0 -0.405348 0 117.024 
0.416807 -3.53828e-05 -0.00023758 -1.85409e-06 0 -0.416807 0 160.021 
0.381485 -1.90009e-05 -6.49404e-06 0.000217447 0 0 0.381485 68.1565 
0.515986 -2.30743e-05 4.90213e-06 0.000294112 0 0 0.515986 76.1969 
0.368554 -2.23054e-05 1.33814e-05 -0.000210076 0 0 -0.368554 103.973 
0.356952 -2.54011e-05 -5.81584e-07 -0.000203463 0 0 -0.356952 86.2611 
0.328568 -4.43801e-05 -0.000187284 8.1626e-06 0 -0.328568 0 117.118 
0.382999 -2.68365e-05 -0.00021831 1.15307e-06 0 -0.382999 0 65.0226 