ITEM: TIMESTEP
190
ITEM: NUMBER OF SURFS
6916
ITEM: BOX BOUNDS oo rr rr
-0.35 0.35
-0.25 0.25
-0.25 0.25
ITEM: SURFS f_save[1] f_save[2] f_save[3] f_save[4] f_save[5] f_save[6] f_save[7] f_save[8] 
8.96391 -6.72574e-05 0 0 -8.96391 0 0 0 
4.32664 -3.24633e-05 0 0 -4.32664 0 0 0 
0 0 0 0 0 0 0 0 
0.9874 -1.64472e-05 0.000296343 3.71331e-06 0 0.9874 0 123.799 
0.817348 -4.76214e-05 0.000245289 -1.60052e-05 0 0.817348 0 369.961 
0.846754 -2.82414e-05 -0.000254132 4.9064e-06 0 -0.846754 0 196.802 
1.09997 -4.10194e-05 -0.000330105 -3.88386e-06 0 -1.09997 0 266.176 
0 0 0 0 0 0 0 0 
0 0 0 0 0 0 0 0 
0 0 0 0 0 0 0 0 
0.306632 -5.25929e-05 1.93987e-06 0.00017938 0 0 0.306632 181.486 
0.354141 -1.8881e-05 -4.08596e-06 0.000207172 0 0 0.354141 75.7982 
0 0 0 0 0 0 0 0 
7.38246 -1.79948e-05 0 0 -7.38246 0 0 0 
0 0 0 0 0 0 0 0 
73.5966 -9.19962e-06 -1.60252e-06 2.75504e-07 -73.5966 0 0 99689.9 
0 0 0 0 0 0 0 0 
0 0 0 0 0 0 0 0 
7.86644 -1.91744e-05 0 0 -7.86644 0 0 0 
22.6544 -5.522e-05 -1.15691e-07 -6.54262e-07 -22.6544 0 0 5611.59 
0 0 0 0 0 0 0 0 
0 0 0 0 0 0 0 0 
6.90563 -1.64009e-05 0 0 -6.90563 0 0 0 
4.91224 -1.16666e-05 0 0 -4.91224 0 0 0 
0 0 0 0 0 0 0 0 
0 0 0 0 0 0 0 0 
0 0 0 0 0 0 0 0 
0 0 0 0 0 0 0 0 
23.5084 -5.73017e-05 0 0 -23.5084 0 0 0 
18.4676 -4.50148e-05 0 0 -18.4676 0 0 0 
0 0 0 0 0 0 0 0 
127.433 -1.59293e-05 0 0 -127.433 0 0 0 
8.79783 -2.08949e-05 1.1586e-06 -3.7953e-07 -8.79783 0 0 6999.12 
20.8177 -4.94421e-05 1.47048e-08 -1.25406e-06 -20.8177 0 0 5030.64 
21.9975 -5.22442e-05 -1.177e-06 -1.70554e-06 -21.9975 0 0 10777.7 
0 0 0 0 0 0 0 0 
8.70172 -2.06666e-05 7.46309e-07 6.8511e-07 -8.70172 0 0 5887.08 
0 0 0 0 0 0 0 0 
6.76409 -1.60647e-05 0 0 -6.76409 0 0 0 
21.7268 -5.16011e-05 0 0 -21.7268 0 0 0 
12.4949 -2.96756e-05 0 0 -12.4949 0 0 0 
25.8111 -6.13014e-05 0 0 -25.8111 0 0 0 
19.339 -4.59302e-05 -9.54463e-07 -1.52328e-06 -19.339 0 0 6568.41 
29.2503 -6.94695e-05 3.39657e-06 1.22395e-06 -29.2503 0 0 3188.81 
3.91549 -9.29929e-06 -1.02253e-06 1.27752e-06 -3.91549 0 0 6186.12 
0 0 0 0 0 0 0 0 
15.3411 -3.73939e-05 -5.60616e-07 1.24204e-07 -15.3411 0 0 5743.51 
2.35894 -5.74991e-06 -7.38116e-07 -3.40972e-07 -2.35894 0 0 4228.06 
14.2587 -3.47555e-05 0 0 -14.2587 0 0 0 
9.05083 -2.20614e-05 0 0 -9.05083 0 0 0 
14.6734 -3.57664e-05 0 0 -14.6734 0 0 0 
8.38671 -2.04427e-05 1.14451e-07 -1.77208e-07 -8.38671 0 0 7270.14 
14.1038 -3.34964e-05 0 0 -14.1038 0 0 0 
0 0 0 0 0 0 0 0 
13.7831 -3.2735e-05 0 0 -13.7831 0 0 0 
0 0 0 0 0 0 0 0 
12.1704 -2.89047e-05 0 0 -12.1704 0 0 0 
0 0 0 0 0 0 0 0 
7.72496 -1.83467e-05 0 0 -7.72496 0 0 0 
23.0223 -5.46779e-05 0 0 -23.0223 0 0 0 
6.58964 -1.60623e-05 0 0 -6.58964 0 0 0 
6.33104 -1.54319e-05 0 0 -6.33104 0 0 0 
13.047 -3.18021e-05 0 0 -13.047 0 0 0 
14.7163 -3.5871e-05 0 0 -14.7163 0 0 0 
0 0 0 0 0 0 0 0 
7.85649 -1.91502e-05 0 0 -7.85649 0 0 0 
6.52227 -1.58981e-05 0 0 -6.52227 0 0 0 
2.93318 -7.14966e-06 6.07297e-07 5.62905e-07 -2.93318 0 0 4024.36 
14.949 -3.5504e-05 0 0 -14.949 0 0 0 
7.1573 -1.69986e-05 -1.35633e-06 -2.90619e-06 -7.1573 0 0 10756.7 
13.532 -3.29844e-05 2.571e-07 9.39787e-07 -13.532 0 0 6903.92 
4.68813 -1.14274e-05 0 0 -4.68813 0 0 0 
2.19963 -5.2241e-06 2.02198e-07 -3.79414e-07 -2.19963 0 0 3595.07 
7.47149 -1.77448e-05 0 0 -7.47149 0 0 0 
14.0612 -3.42742e-05 0 0 -14.0612 0 0 0 
7.15607 -1.74429e-05 -1.90588e-06 5.12479e-07 -7.15607 0 0 10811.6 
15.6125 -3.80556e-05 7.96296e-07 1.2075e-06 -15.6125 0 0 12369.5 
6.55646 -1.59814e-05 0 0 -6.55646 0 0 0 
10.2991 -2.44604e-05 0 0 -10.2991 0 0 0 
21.3184 -5.06311e-05 0 0 -21.3184 0 0 0 
0 0 0 0 0 0 0 0 
11.9893 -2.84747e-05 0 0 -11.9893 0 0 0 
14.5018 -3.44419e-05 0 0 -14.5018 0 0 0 
9.18412 -2.18123e-05 -6.76334e-07 8.32103e-08 -9.18412 0 0 6334.15 
6.72378 -1.5969e-05 0 0 -6.72378 0 0 0 
7.15221 -1.69865e-05 0 0 -7.15221 0 0 0 
13.6215 -3.2351e-05 0 0 -13.6215 0 0 0 
7.36252 -1.7486e-05 0 0 -7.36252 0 0 0 
0 0 0 0 0 0 0 0 
13.381 -3.26162e-05 0 0 -13.381 0 0 0 
2.67232 -6.51381e-06 0 0 -2.67232 0 0 0 
26.7131 -6.51135e-05 0 0 -26.7131 0 0 0 
0 0 0 0 0 0 0 0 
1.80372 -4.28384e-06 0 0 -1.80372 0 0 0 
20.3096 -4.95048e-05 0 0 -20.3096 0 0 0 
20.2585 -4.93801e-05 1.52828e-06 8.9895e-07 -20.2585 0 0 11272.7 
15.6621 -3.71975e-05 -7.94536e-08 -9.20676e-07 -15.6621 0 0 5586.74 
9.52865 -2.26306e-05 8.64116e-07 -3.94809e-07 -9.52865 0 0 3135.95 
0 0 0 0 0 0 0 0 
0 0 0 0 0 0 0 0 
14.675 -3.48532e-05 0 0 -14.675 0 0 0 
21.2325 -5.04273e-05 3.70932e-06 3.17886e-07 -21.2325 0 0 11426 
3.66832 -8.71227e-06 6.13796e-07 6.35109e-07 -3.66832 0 0 5657.46 
14.3873 -3.41699e-05 0 0 -14.3873 0 0 0 
0 0 0 0 0 0 0 0 
0 0 0 0 0 0 0 0 
13.0293 -3.09446e-05 2.64133e-06 2.09984e-07 -13.0293 0 0 10370.7 
0 0 0 0 0 0 0 0 
12.1027 -2.87438e-05 0 0 -12.1027 0 0 0 
4.37575 -1.03924e-05 -6.9895e-07 -1.12491e-06 -4.37575 0 0 7088.71 
0 0 0 0 0 0 0 0 
0 0 0 0 0 0 0 0 
22.4012 -5.32028e-05 0 0 -22.4012 0 0 0 
7.55117 -1.79341e-05 0 0 -7.55117 0 0 0 
0 0 0 0 0 0 0 0 
1.61494 -3.83548e-06 6.29343e-06 -7.89437e-07 -1.61494 0 0 3176.35 
0 0 0 0 0 0 0 0 
0 0 0 0 0 0 0 0 
15.7292 -3.73569e-05 9.19497e-07 4.01505e-06 -15.7292 0 0 3365.08 
6.87091 -1.63184e-05 0 0 -6.87091 0 0 0 
13.3475 -3.17005e-05 0 0 -13.3475 0 0 0 
7.88592 -1.87291e-05 -5.44461e-06 -1.98633e-06 -7.88592 0 0 4144.05 
0 0 0 0 0 0 0 0 
0 0 0 0 0 0 0 0 
3.74199 -8.88723e-06 -4.12912e-07 -1.23382e-06 -3.74199 0 0 5992.17 
5.14445 -1.22181e-05 0 0 -5.14445 0 0 0 
15.4731 -3.77156e-05 0 0 -15.4731 0 0 0 
7.16626 -1.74677e-05 0 0 -7.16626 0 0 0 
0 0 0 0 0 0 0 0 
0 0 0 0 0 0 0 0 
6.24546 -1.4833e-05 0 0 -6.24546 0 0 0 
6.96412 -1.65398e-05 0 0 -6.96412 0 0 0 
12.1033 -2.95018e-05 0 0 -12.1033 0 0 0 
18.8809 -4.60222e-05 0 0 -18.8809 0 0 0 
0 0 0 0 0 0 0 0 
0 0 0 0 0 0 0 0 
6.50125 -1.54405e-05 0 0 -6.50125 0 0 0 
7.56893 -1.79762e-05 0 0 -7.56893 0 0 0 
0 0 0 0 0 0 0 0 
27.6041 -6.72848e-05 0 0 -27.6041 0 0 0 
0 0 0 0 0 0 0 0 
0 0 0 0 0 0 0 0 
11.355 -2.69682e-05 3.82162e-08 1.89251e-07 -11.355 0 0 6090.94 
7.4874 -1.77826e-05 0 0 -7.4874 0 0 0 
0 0 0 0 0 0 0 0 
13.9934 -3.4109e-05 -8.33812e-07 -1.83854e-06 -13.9934 0 0 12102.9 
0 0 0 0 0 0 0 0 
0 0 0 0 0 0 0 0 
15.5556 -3.69448e-05 0 0 -15.5556 0 0 0 
7.10856 -1.68829e-05 0 0 -7.10856 0 0 0 
26.798 -6.53201e-05 0 0 -26.798 0 0 0 
22.898 -5.58139e-05 2.67895e-07 -5.59206e-07 -22.898 0 0 6139.76 
0 0 0 0 0 0 0 0 
0 0 0 0 0 0 0 0 
0 0 0 0 0 0 0 0 
6.40912 -1.52217e-05 0 0 -6.40912 0 0 0 
6.79656 -1.61419e-05 0 0 -6.79656 0 0 0 
9.04658 -2.14857e-05 0 0 -9.04658 0 0 0 
0 0 0 0 0 0 0 0 
0 0 0 0 0 0 0 0 
7.12782 -1.7374e-05 0 0 -7.12782 0 0 0 
20.2184 -4.92823e-05 0 0 -20.2184 0 0 0 
10.6991 -2.60792e-05 -3.6793e-07 9.72777e-07 -10.6991 0 0 5305.91 
0 0 0 0 0 0 0 0 
0 0 0 0 0 0 0 0 
0 0 0 0 0 0 0 0 
7.15776 -1.69998e-05 0 0 -7.15776 0 0 0 
8.75695 -2.07979e-05 -1.24812e-06 -2.22534e-06 -8.75695 0 0 1419.63 
9.32085 -2.21371e-05 9.74145e-07 -1.94281e-07 -9.32085 0 0 3387.41 
10.3087 -2.44832e-05 0 0 -10.3087 0 0 0 
0 0 0 0 0 0 0 0 
0 0 0 0 0 0 0 0 
13.9988 -3.4122e-05 0 0 -13.9988 0 0 0 
0 0 0 0 0 0 0 0 
18.1965 -4.32167e-05 9.44659e-07 -2.10355e-06 -18.1965 0 0 10148.8 
4.5087 -1.07081e-05 0 0 -4.5087 0 0 0 
0 0 0 0 0 0 0 0 
0 0 0 0 0 0 0 0 
19.2103 -4.56246e-05 -5.70006e-07 9.84436e-08 -19.2103 0 0 5952.19 
0 0 0 0 0 0 0 0 
14.3297 -3.40333e-05 1.41581e-06 -1.00017e-07 -14.3297 0 0 6799.72 
7.63424 -1.81314e-05 0 0 -7.63424 0 0 0 
0 0 0 0 0 0 0 0 
0 0 0 0 0 0 0 0 
7.50446 -1.78231e-05 0 0 -7.50446 0 0 0 
22.1251 -5.25473e-05 0 0 -22.1251 0 0 0 
18.7397 -4.45067e-05 0 0 -18.7397 0 0 0 
7.48326 -1.77727e-05 0 0 -7.48326 0 0 0 
0 0 0 0 0 0 0 0 
0 0 0 0 0 0 0 0 
6.99849 -1.66215e-05 0 0 -6.99849 0 0 0 
4.1504 -9.85725e-06 5.03993e-07 3.13645e-07 -4.1504 0 0 6965.21 
0 0 0 0 0 0 0 0 
0 0 0 0 0 0 0 0 
28.1656 -6.68934e-05 0 0 -28.1656 0 0 0 
0 0 0 0 0 0 0 0 
0 0 0 0 0 0 0 0 
0 0 0 0 0 0 0 0 
7.14238 -1.74096e-05 0 0 -7.14238 0 0 0 
0 0 0 0 0 0 0 0 
12.2512 -2.90967e-05 0 0 -12.2512 0 0 0 
19.9574 -4.73988e-05 0 0 -19.9574 0 0 0 
131.583 -1.64479e-05 0 0 -131.583 0 0 0 
0 0 0 0 0 0 0 0 
0 0 0 0 0 0 0 0 
3.31606 -7.87563e-06 -1.53451e-06 -2.92995e-06 -3.31606 0 0 6608.15 
0 0 0 0 0 0 0 0 
0 0 0 0 0 0 0 0 
0 0 0 0 0 0 0 0 
0 0 0 0 0 0 0 0 
6.89963 -1.63866e-05 0 0 -6.89963 0 0 0 
11.0525 -2.62497e-05 0 0 -11.0525 0 0 0 
0 0 0 0 0 0 0 0 
0 0 0 0 0 0 0 0 
15.1553 -3.59937e-05 0 0 -15.1553 0 0 0 
13.9895 -3.3225e-05 0 0 -13.9895 0 0 0 
0 0 0 0 0 0 0 0 
0 0 0 0 0 0 0 0 
0 0 0 0 0 0 0 0 
0 0 0 0 0 0 0 0 
3.98191 -9.45704e-06 -2.38056e-06 3.62376e-07 -3.98191 0 0 7201.08 
0 0 0 0 0 0 0 0 
0 0 0 0 0 0 0 0 
0 0 0 0 0 0 0 0 
0 0 0 0 0 0 0 0 
25.0679 -5.95364e-05 1.42214e-07 -2.23499e-07 -25.0679 0 0 5544.05 
18.6384 -4.42664e-05 0 0 -18.6384 0 0 0 
8.37617 -1.98934e-05 -8.88079e-08 -1.2872e-06 -8.37617 0 0 15619.5 
0 0 0 0 0 0 0 0 
0 0 0 0 0 0 0 0 
21.9963 -5.22414e-05 0 0 -21.9963 0 0 0 
2.55829 -6.07595e-06 0 0 -2.55829 0 0 0 
6.89358 -1.63723e-05 0 0 -6.89358 0 0 0 
3.84449 -9.13069e-06 -1.04083e-06 5.92163e-07 -3.84449 0 0 6214.52 
0 0 0 0 0 0 0 0 
0 0 0 0 0 0 0 0 
4.56922 -1.08519e-05 1.19564e-06 6.3479e-07 -4.56922 0 0 5935.94 
1.14372 -2.71635e-06 -5.10984e-07 1.22827e-06 -1.14372 0 0 662.598 
0 0 0 0 0 0 0 0 
97.6882 -1.2211e-05 0 0 -97.6882 0 0 0 
21.3705 -5.07549e-05 0 0 -21.3705 0 0 0 
0 0 0 0 0 0 0 0 
4.89896 -1.19412e-05 0 0 -4.89896 0 0 0 
2.92154 -7.12126e-06 -1.70119e-06 1.75487e-06 -2.92154 0 0 4876.93 
0 0 0 0 0 0 0 0 
147.555 -1.84445e-05 0 0 -147.555 0 0 0 
7.48026 -1.77657e-05 -1.66908e-08 -5.62056e-08 -7.48026 0 0 2006.16 
0 0 0 0 0 0 0 0 
2.19187 -5.20571e-06 0 0 -2.19187 0 0 0 
20.1564 -4.78716e-05 0 0 -20.1564 0 0 0 
0 0 0 0 0 0 0 0 
0 0 0 0 0 0 0 0 
0 0 0 0 0 0 0 0 
11.0055 -2.68259e-05 0 0 -11.0055 0 0 0 
4.91548 -1.16743e-05 0 0 -4.91548 0 0 0 
4.24101 -1.00724e-05 1.65013e-06 4.57018e-07 -4.24101 0 0 6685.08 
0 0 0 0 0 0 0 0 
0 0 0 0 0 0 0 0 
18.1684 -4.31499e-05 -1.99814e-09 -1.20683e-06 -18.1684 0 0 7772.87 
6.94253 -1.64885e-05 0 0 -6.94253 0 0 0 
16.9845 -4.03381e-05 0 0 -16.9845 0 0 0 
7.2914 -1.7317e-05 0 0 -7.2914 0 0 0 
0 0 0 0 0 0 0 0 
0 0 0 0 0 0 0 0 
2.86449 -6.80317e-06 7.61053e-07 -8.09157e-07 -2.86449 0 0 4259.46 
17.2372 -4.09384e-05 -5.93256e-07 9.75685e-07 -17.2372 0 0 6494.23 
10.9927 -2.61077e-05 -9.68795e-07 -5.47197e-07 -10.9927 0 0 7276.8 
2.45455 -5.8296e-06 4.46949e-07 -5.17549e-07 -2.45455 0 0 4045.27 
0 0 0 0 0 0 0 0 
0 0 0 0 0 0 0 0 
10.8023 -2.56555e-05 0 0 -10.8023 0 0 0 
11.1323 -2.64393e-05 -6.21954e-08 -7.3828e-07 -11.1323 0 0 5995.56 
7.23538 -1.71841e-05 0 0 -7.23538 0 0 0 
7.17247 -1.70347e-05 0 0 -7.17247 0 0 0 
140.956 -1.76197e-05 0 0 -140.956 0 0 0 
0 0 0 0 0 0 0 0 
7.33382 -1.74178e-05 6.59144e-07 -4.60496e-07 -7.33382 0 0 5324.33 
7.12549 -1.69231e-05 0 0 -7.12549 0 0 0 
7.2621 -1.72475e-05 0 0 -7.2621 0 0 0 
18.1507 -4.3108e-05 -3.61812e-07 -7.77617e-07 -18.1507 0 0 4835.12 
0 0 0 0 0 0 0 0 
0 0 0 0 0 0 0 0 
0 0 0 0 0 0 0 0 
1.09111 -2.59139e-06 0 0 -1.09111 0 0 0 
6.89314 -1.63712e-05 0 0 -6.89314 0 0 0 
3.90398 -9.27193e-06 2.59416e-07 5.31793e-07 -3.90398 0 0 6418.77 
0 0 0 0 0 0 0 0 
0 0 0 0 0 0 0 0 
4.75859 -1.13017e-05 0 0 -4.75859 0 0 0 
21.2773 -5.05337e-05 0 0 -21.2773 0 0 0 
0 0 0 0 0 0 0 0 
6.26318 -1.48751e-05 0 0 -6.26318 0 0 0 
0 0 0 0 0 0 0 0 
0 0 0 0 0 0 0 0 
16.734 -3.97432e-05 -3.68607e-07 7.69754e-07 -16.734 0 0 3955.11 
10.1008 -2.39894e-05 5.12629e-07 5.26955e-07 -10.1008 0 0 3508.02 
0 0 0 0 0 0 0 0 
0 0 0 0 0 0 0 0 
18.945 -4.49944e-05 0 0 -18.945 0 0 0 
17.3833 -4.12855e-05 0 0 -17.3833 0 0 0 
0 0 0 0 0 0 0 0 
12.3775 -2.93966e-05 0 0 -12.3775 0 0 0 
82.8586 -1.03573e-05 -4.02043e-07 -7.12028e-07 -82.8586 0 0 135133 
0 0 0 0 0 0 0 0 
7.97852 -1.8949e-05 -4.27335e-07 -1.4006e-06 -7.97852 0 0 12152.9 
14.3438 -3.40666e-05 0 0 -14.3438 0 0 0 
0 0 0 0 0 0 0 0 
22.1111 -5.2514e-05 0 0 -22.1111 0 0 0 
0 0 0 0 0 0 0 0 
0 0 0 0 0 0 0 0 
4.97325 -1.18114e-05 0 0 -4.97325 0 0 0 
22.7815 -5.4106e-05 -1.0125e-07 4.11478e-07 -22.7815 0 0 7751.98 
7.75526 -1.84188e-05 0 0 -7.75526 0 0 0 
7.51707 -1.78531e-05 0 0 -7.51707 0 0 0 
0 0 0 0 0 0 0 0 
0 0 0 0 0 0 0 0 
17.7755 -4.22169e-05 0 0 -17.7755 0 0 0 
13.6545 -3.24294e-05 0 0 -13.6545 0 0 0 
0 0 0 0 0 0 0 0 
0 0 0 0 0 0 0 0 
6.77984 -1.61022e-05 0 0 -6.77984 0 0 0 
20.7921 -4.93814e-05 5.20638e-07 -8.81549e-07 -20.7921 0 0 6503 
0 0 0 0 0 0 0 0 
0 0 0 0 0 0 0 0 
15.4331 -3.66537e-05 0 0 -15.4331 0 0 0 
6.8109 -1.61759e-05 0 0 -6.8109 0 0 0 
0 0 0 0 0 0 0 0 
130.468 -1.63084e-05 0 0 -130.468 0 0 0 
0 0 0 0 0 0 0 0 
12.6825 -3.01209e-05 -1.39738e-06 -7.13919e-07 -12.6825 0 0 9479.7 
0 0 0 0 0 0 0 0 
0 0 0 0 0 0 0 0 
14.2467 -3.47266e-05 0 0 -14.2467 0 0 0 
0 0 0 0 0 0 0 0 
9.30033 -0.0045844 6.77508e-06 -1.14928e-05 -9.30033 0 0 2076.04 
7.89824 -0.000385039 -1.39871e-06 -4.50213e-07 -7.89824 0 0 209.512 
13.5642 -3.39105e-05 0 0 -13.5642 0 0 0 
8.85315 -0.000420525 -1.53857e-06 2.33602e-06 -8.85315 0 0 1697.36 
12.742 -3.1855e-05 0 0 -12.742 0 0 0 
8.98982 -0.000427017 2.00552e-06 -3.21381e-06 -8.98982 0 0 1196.92 
7.47965 -1.86992e-05 -7.30588e-08 -4.02106e-07 -7.47965 0 0 5243.32 
8.3325 -0.000395794 -9.49542e-07 -9.72064e-07 -8.3325 0 0 1234.15 
30.6675 -7.66687e-05 1.4395e-06 -1.00981e-06 -30.6675 0 0 6228.66 
8.72894 -0.000414625 7.24513e-06 -1.14869e-05 -8.72894 0 0 1829.74 
5.28057 -1.32015e-05 2.55187e-07 1.23693e-07 -5.28057 0 0 3830.72 
12.3256 -0.000585468 5.16224e-06 7.53098e-07 -12.3256 0 0 4212.09 
0 0 0 0 0 0 0 0 
8.85641 -0.00042068 -5.4583e-07 -3.19289e-07 -8.85641 0 0 915.474 
34.7173 -8.67939e-05 0 0 -34.7173 0 0 3.11421e-11 
7.30256 -0.000356 1.89304e-06 -1.53718e-07 -7.30256 0 0 2075.06 
8.90763 -0.00388694 -9.40853e-06 -5.24193e-06 -8.90763 0 0 1591.34 
7.12016 -0.000496352 -4.55173e-06 2.9596e-06 -7.12016 0 0 807.505 
12.5181 -0.00107656 -1.91365e-06 -4.77547e-07 -12.5181 0 0 2532.25 
11.3977 -0.000980197 -1.56854e-06 -2.61581e-06 -11.3977 0 0 2241.45 
9.85627 -0.000480493 -3.58822e-06 -4.32793e-08 -9.85627 0 0 1594.85 
13.1112 -3.2778e-05 0 0 -13.1112 0 0 0 
11.9214 -0.000566266 -4.51944e-07 9.5567e-07 -11.9214 0 0 2731.31 
6.07843 -1.51961e-05 -5.35368e-07 1.78492e-07 -6.07843 0 0 5408.7 
9.37572 -0.000445347 1.08527e-06 7.16982e-06 -9.37572 0 0 1839.21 
3.70208 -9.25522e-06 5.4029e-07 -6.43911e-07 -3.70208 0 0 3689.75 
12.7831 -0.000607196 -2.70588e-07 -3.07086e-06 -12.7831 0 0 2046.86 
12.9519 -3.23798e-05 0 0 -12.9519 0 0 0 
7.62766 -0.000362314 -3.08229e-07 1.11529e-06 -7.62766 0 0 742.985 
9.12002 -2.28001e-05 -4.87491e-07 2.53113e-07 -9.12002 0 0 5289.85 
12.8573 -0.000610723 3.21315e-06 -4.07556e-06 -12.8573 0 0 2451.36 
6.92221 -1.73055e-05 0 0 -6.92221 0 0 0 
7.67024 -0.000364337 -1.32479e-06 3.38717e-06 -7.67024 0 0 1434.4 
5.76577 -1.44145e-05 0 0 -5.76577 0 0 5.08442e-12 
8.37221 -0.000408145 4.42531e-06 2.79718e-06 -8.37221 0 0 1480.22 
8.86576 -0.000432206 5.26013e-06 -2.80319e-06 -8.86576 0 0 1911.91 
10.0609 -0.00495933 -4.12998e-06 2.02946e-06 -10.0609 0 0 2304.06 
10.8855 -0.000936154 2.45643e-06 4.04035e-06 -10.8855 0 0 2227.42 
9.32885 -0.000802282 1.45182e-06 1.94546e-07 -9.32885 0 0 1322.18 
9.38948 -0.000123398 1.2446e-06 1.40905e-07 -9.38948 0 0 3279.37 
8.14181 -0.000396913 8.55712e-07 -2.54034e-06 -8.14181 0 0 1492.08 
0 0 0 0 0 0 0 0 
8.75829 -0.000416019 -3.39486e-06 -4.24135e-07 -8.75829 0 0 2879.83 
11.0672 -2.76681e-05 -7.33498e-07 1.07129e-07 -11.0672 0 0 5817.15 
7.44993 -0.000353872 -1.68514e-06 7.35557e-07 -7.44993 0 0 2796.65 
0 0 0 0 0 0 0 0 
7.89167 -0.000374854 -5.0369e-07 -1.95101e-06 -7.89167 0 0 1253.71 
7.57117 -1.89279e-05 0 0 -7.57117 0 0 0 
11.6483 -0.000553296 -1.38981e-06 5.19557e-07 -11.6483 0 0 862.739 
9.5326 -2.38316e-05 -1.50189e-06 1.5632e-06 -9.5326 0 0 4842.76 
11.3899 -0.000541021 -4.06133e-06 1.16796e-06 -11.3899 0 0 2805.3 
3.80269 -9.50672e-06 0 0 -3.80269 0 0 0 
9.83629 -0.000467224 -9.54881e-07 -6.85028e-07 -9.83629 0 0 2033.74 
0 0 0 0 0 0 0 0 
6.06358 -0.0002956 -4.34377e-06 2.07508e-06 -6.06358 0 0 944.406 
8.98126 -0.00442712 5.55511e-06 1.05824e-05 -8.98126 0 0 1742.61 
6.8962 -1.72405e-05 0 0 -6.8962 0 0 0 
10.8875 -0.000517157 -7.09256e-07 -5.38833e-07 -10.8875 0 0 1681.03 
6.57911 -1.64478e-05 0 0 -6.57911 0 0 0 
8.45741 -0.000401727 -4.67962e-06 -1.22545e-06 -8.45741 0 0 993.46 
26.062 -6.51552e-05 4.13907e-07 1.52277e-07 -26.062 0 0 5397.09 
10.259 -0.000487303 4.27303e-06 -9.04098e-07 -10.259 0 0 2110.33 
6.54383 -1.63596e-05 0 0 -6.54383 0 0 0 
10.2887 -0.000488713 -1.90533e-06 -3.53365e-06 -10.2887 0 0 2475.68 
17.8321 -4.45803e-05 0 0 -17.8321 0 0 0 
6.79966 -0.000322984 2.1197e-06 1.92821e-06 -6.79966 0 0 1668.73 
3.73514 -9.33783e-06 -1.02204e-06 -5.25645e-07 -3.73514 0 0 6813.46 
7.88985 -0.000374768 1.12146e-06 8.6665e-07 -7.88985 0 0 1512.23 
11.7562 -2.93906e-05 0 0 -11.7562 0 0 1.01688e-11 
7.80297 -0.000380395 2.97942e-06 -2.58413e-06 -7.80297 0 0 1683.35 
0.19447 -3.08972e-05 0.000113765 -3.17288e-06 0 0.19447 0 90.8548 
0.438352 -8.20098e-06 0.000128218 -3.86029e-07 0 0.438352 0 65.2105 
0.419835 -1.60074e-05 0.000122802 5.8244e-07 0 0.419835 0 86.0647 
0 0 0 0 0 0 0 0 
0 0 0 0 0 0 0 0 
1.65037 3.91964e-06 0 0 1.65037 0 0 0 
0 0 0 0 0 0 0 0 
0 0 0 0 0 0 0 0 
0 0 0 0 0 0 0 0 
0 0 0 0 0 0 0 0 
0 0 0 0 0 0 0 0 
0 0 0 0 0 0 0 0 
0 0 0 0 0 0 0 0 
0 0 0 0 0 0 0 0 
0 0 0 0 0 0 0 0 
0 0 0 0 0 0 0 0 
1.09115 2.59148e-06 0 0 1.09115 0 0 0 
0 0 0 0 0 0 0 0 
0 0 0 0 0 0 0 0 
0 0 0 0 0 0 0 0 
0 0 0 0 0 0 0 0 
0 0 0 0 0 0 0 0 
0 0 0 0 0 0 0 0 
0 0 0 0 0 0 0 0 
0.703109 1.66989e-06 0 0 0.703109 0 0 0 
0 0 0 0 0 0 0 0 
0 0 0 0 0 0 0 0 
0 0 0 0 0 0 0 0 
3.67535 8.72897e-06 -2.74476e-07 -6.23195e-07 3.67535 0 0 5261.39 
0 0 0 0 0 0 0 0 
0 0 0 0 0 0 0 0 
0 0 0 0 0 0 0 0 
0 0 0 0 0 0 0 0 
0 0 0 0 0 0 0 0 
1.10161 2.61633e-06 0 0 1.10161 0 0 0 
0 0 0 0 0 0 0 0 
0 0 0 0 0 0 0 0 
0 0 0 0 0 0 0 0 
2.94373 7.54331e-06 0 0 2.94373 0 0 0 
0 0 0 0 0 0 0 0 
0 0 0 0 0 0 0 0 
0 0 0 0 0 0 0 0 
2.37615 5.64335e-06 0 0 2.37615 0 0 0 
0 0 0 0 0 0 0 0 
0 0 0 0 0 0 0 0 
0 0 0 0 0 0 0 0 
0 0 0 0 0 0 0 0 
0 0 0 0 0 0 0 0 
0 0 0 0 0 0 0 0 
0 0 0 0 0 0 0 0 
0 0 0 0 0 0 0 0 
0 0 0 0 0 0 0 0 
0 0 0 0 0 0 0 0 
5.48444 1.30256e-05 0 0 5.48444 0 0 0 
0 0 0 0 0 0 0 0 
0 0 0 0 0 0 0 0 
0 0 0 0 0 0 0 0 
0 0 0 0 0 0 0 0 
0 0 0 0 0 0 0 0 
0 0 0 0 0 0 0 0 
2.90574 6.90116e-06 0 0 2.90574 0 0 0 
0 0 0 0 0 0 0 0 
0 0 0 0 0 0 0 0 
0 0 0 0 0 0 0 0 
0 0 0 0 0 0 0 0 
0 0 0 0 0 0 0 0 
0 0 0 0 0 0 0 0 
0 0 0 0 0 0 0 0 
1.03391 2.45554e-06 0 0 1.03391 0 0 0 
0 0 0 0 0 0 0 0 
0 0 0 0 0 0 0 0 
0 0 0 0 0 0 0 0 
0 0 0 0 0 0 0 0 
0 0 0 0 0 0 0 0 
0 0 0 0 0 0 0 0 
0.768554 1.82531e-06 0 0 0.768554 0 0 0 
0 0 0 0 0 0 0 0 
0 0 0 0 0 0 0 0 
0 0 0 0 0 0 0 0 
0 0 0 0 0 0 0 0 
0 0 0 0 0 0 0 0 
0 0 0 0 0 0 0 0 
0 0 0 0 0 0 0 0 
2.91304 6.91846e-06 3.3599e-08 -1.78058e-06 2.91304 0 0 923.704 
0 0 0 0 0 0 0 0 
20.4236 2.55295e-06 0 0 20.4236 0 0 0 
0 0 0 0 0 0 0 0 
0 0 0 0 0 0 0 0 
4.28864 1.01855e-05 0 0 4.28864 0 0 0 
0 0 0 0 0 0 0 0 
0 0 0 0 0 0 0 0 
0 0 0 0 0 0 0 0 
0 0 0 0 0 0 0 0 
0 0 0 0 0 0 0 0 
1.24889 2.96611e-06 0 0 1.24889 0 0 0 
0 0 0 0 0 0 0 0 
0 0 0 0 0 0 0 0 
0 0 0 0 0 0 0 0 
3.68682 8.75622e-06 0 0 3.68682 0 0 0 
0 0 0 0 0 0 0 0 
0 0 0 0 0 0 0 0 
0 0 0 0 0 0 0 0 
0 0 0 0 0 0 0 0 
0 0 0 0 0 0 0 0 
1.37816 3.27314e-06 0 0 1.37816 0 0 0 
0 0 0 0 0 0 0 0 
0 0 0 0 0 0 0 0 
1.32053 3.13626e-06 -2.13831e-06 2.21172e-06 1.32053 0 0 2333.42 
0 0 0 0 0 0 0 0 
0 0 0 0 0 0 0 0 
0 0 0 0 0 0 0 0 
0.902346 2.14307e-06 -1.72493e-06 7.32614e-07 0.902346 0 0 638.841 
0 0 0 0 0 0 0 0 
0 0 0 0 0 0 0 0 
0 0 0 0 0 0 0 0 
0 0 0 0 0 0 0 0 
0 0 0 0 0 0 0 0 
0 0 0 0 0 0 0 0 
0 0 0 0 0 0 0 0 
0 0 0 0 0 0 0 0 
0 0 0 0 0 0 0 0 
2.59963 6.17412e-06 0 0 2.59963 0 0 0 
0 0 0 0 0 0 0 0 
0 0 0 0 0 0 0 0 
0 0 0 0 0 0 0 0 
0 0 0 0 0 0 0 0 
0 0 0 0 0 0 0 0 
0 0 0 0 0 0 0 0 
0 0 0 0 0 0 0 0 
0 0 0 0 0 0 0 0 
0 0 0 0 0 0 0 0 
0 0 0 0 0 0 0 0 
0 0 0 0 0 0 0 0 
0 0 0 0 0 0 0 0 
0 0 0 0 0 0 0 0 
0 0 0 0 0 0 0 0 
0 0 0 0 0 0 0 0 
7.88071 1.87167e-05 0 0 7.88071 0 0 0 
0 0 0 0 0 0 0 0 
0 0 0 0 0 0 0 0 
0 0 0 0 0 0 0 0 
0 0 0 0 0 0 0 0 
4.84822 1.15145e-05 0 0 4.84822 0 0 0 
0 0 0 0 0 0 0 0 
0 0 0 0 0 0 0 0 
0 0 0 0 0 0 0 0 
0 0 0 0 0 0 0 0 
0 0 0 0 0 0 0 0 
0 0 0 0 0 0 0 0 
0 0 0 0 0 0 0 0 
0 0 0 0 0 0 0 0 
0 0 0 0 0 0 0 0 
0 0 0 0 0 0 0 0 
0 0 0 0 0 0 0 0 
0 0 0 0 0 0 0 0 
0 0 0 0 0 0 0 0 
0 0 0 0 0 0 0 0 
0 0 0 0 0 0 0 0 
0 0 0 0 0 0 0 0 
0 0 0 0 0 0 0 0 
1.91179 4.5405e-06 0 0 1.91179 0 0 0 
0 0 0 0 0 0 0 0 
0 0 0 0 0 0 0 0 
0 0 0 0 0 0 0 0 
0 0 0 0 0 0 0 0 
0 0 0 0 0 0 0 0 
0 0 0 0 0 0 0 0 
0 0 0 0 0 0 0 0 
1.71901 4.08266e-06 0 0 1.71901 0 0 0 
0 0 0 0 0 0 0 0 
0 0 0 0 0 0 0 0 
0 0 0 0 0 0 0 0 
0 0 0 0 0 0 0 0 
0 0 0 0 0 0 0 0 
0 0 0 0 0 0 0 0 
0 0 0 0 0 0 0 0 
0 0 0 0 0 0 0 0 
0 0 0 0 0 0 0 0 
0 0 0 0 0 0 0 0 
0 0 0 0 0 0 0 0 
0 0 0 0 0 0 0 0 
0 0 0 0 0 0 0 0 
0 0 0 0 0 0 0 0 
0 0 0 0 0 0 0 0 
1.09898 2.61008e-06 0 0 1.09898 0 0 0 
0 0 0 0 0 0 0 0 
0 0 0 0 0 0 0 0 
0 0 0 0 0 0 0 0 
0 0 0 0 0 0 0 0 
0 0 0 0 0 0 0 0 
0 0 0 0 0 0 0 0 
0 0 0 0 0 0 0 0 
0 0 0 0 0 0 0 0 
0 0 0 0 0 0 0 0 
0 0 0 0 0 0 0 0 
0 0 0 0 0 0 0 0 
0 0 0 0 0 0 0 0 
0 0 0 0 0 0 0 0 
0 0 0 0 0 0 0 0 
0 0 0 0 0 0 0 0 
0 0 0 0 0 0 0 0 
0 0 0 0 0 0 0 0 
0.824845 1.95902e-06 0 0 0.824845 0 0 0 
0 0 0 0 0 0 0 0 
0 0 0 0 0 0 0 0 
0 0 0 0 0 0 0 0 
0 0 0 0 0 0 0 0 
0 0 0 0 0 0 0 0 
0 0 0 0 0 0 0 0 
0 0 0 0 0 0 0 0 
0 0 0 0 0 0 0 0 
0 0 0 0 0 0 0 0 
0 0 0 0 0 0 0 0 
0 0 0 0 0 0 0 0 
0 0 0 0 0 0 0 0 
0 0 0 0 0 0 0 0 
0 0 0 0 0 0 0 0 
0 0 0 0 0 0 0 0 
0 0 0 0 0 0 0 0 
0 0 0 0 0 0 0 0 
0 0 0 0 0 0 0 0 
0 0 0 0 0 0 0 0 
0 0 0 0 0 0 0 0 
0 0 0 0 0 0 0 0 
0 0 0 0 0 0 0 0 
0.783076 1.85981e-06 1.72386e-06 -2.70741e-07 0.783076 0 0 2430.15 
0 0 0 0 0 0 0 0 
0 0 0 0 0 0 0 0 
0 0 0 0 0 0 0 0 
0 0 0 0 0 0 0 0 
3.46687 8.45051e-06 0 0 3.46687 0 0 0 
1.20161 2.92893e-06 0 0 1.20161 0 0 0 
0 0 0 0 0 0 0 0 
3.29571 7.82736e-06 0 0 3.29571 0 0 0 
2.75246 6.53713e-06 0 0 2.75246 0 0 0 
0.600618 1.46401e-06 0 0 0.600618 0 0 0 
0 0 0 0 0 0 0 0 
0 0 0 0 0 0 0 0 
2.1996 5.22408e-06 0 0 2.1996 0 0 0 
0 0 0 0 0 0 0 0 
0 0 0 0 0 0 0 0 
0 0 0 0 0 0 0 0 
0 0 0 0 0 0 0 0 
0.311956 7.60395e-07 0 0 0.311956 0 0 0 
0 0 0 0 0 0 0 0 
0 0 0 0 0 0 0 0 
0 0 0 0 0 0 0 0 
0 0 0 0 0 0 0 0 
0 0 0 0 0 0 0 0 
0 0 0 0 0 0 0 0 
7.31784 1.73799e-05 0 0 7.31784 0 0 0 
0 0 0 0 0 0 0 0 
0 0 0 0 0 0 0 0 
0 0 0 0 0 0 0 0 
0 0 0 0 0 0 0 0 
0 0 0 0 0 0 0 0 
0 0 0 0 0 0 0 0 
0 0 0 0 0 0 0 0 
0 0 0 0 0 0 0 0 
0 0 0 0 0 0 0 0 
0 0 0 0 0 0 0 0 
1.28027 3.12067e-06 0 0 1.28027 0 0 0 
0 0 0 0 0 0 0 0 
0 0 0 0 0 0 0 0 
0 0 0 0 0 0 0 0 
0 0 0 0 0 0 0 0 
0 0 0 0 0 0 0 0 
0 0 0 0 0 0 0 0 
0 0 0 0 0 0 0 0 
14.5029 1.81287e-06 -2.05857e-07 2.50236e-06 14.5029 0 0 23469.9 
0 0 0 0 0 0 0 0 
0 0 0 0 0 0 0 0 
0 0 0 0 0 0 0 0 
0 0 0 0 0 0 0 0 
0 0 0 0 0 0 0 0 
0 0 0 0 0 0 0 0 
0 0 0 0 0 0 0 0 
0 0 0 0 0 0 0 0 
0 0 0 0 0 0 0 0 
0.377902 9.21133e-07 0 0 0.377902 0 0 0 
0 0 0 0 0 0 0 0 
0 0 0 0 0 0 0 0 
0 0 0 0 0 0 0 0 
0 0 0 0 0 0 0 0 
0 0 0 0 0 0 0 0 
0.352375 8.5892e-07 0 0 0.352375 0 0 0 
0 0 0 0 0 0 0 0 
0 0 0 0 0 0 0 0 
0 0 0 0 0 0 0 0 
0 0 0 0 0 0 0 0 
0 0 0 0 0 0 0 0 
0 0 0 0 0 0 0 0 
0 0 0 0 0 0 0 0 
0 0 0 0 0 0 0 0 
0 0 0 0 0 0 0 0 
1.91503 4.54822e-06 2.99478e-06 8.05228e-07 1.91503 0 0 2164.29 
0 0 0 0 0 0 0 0 
0.211801 5.16267e-07 0 0 0.211801 0 0 0 
0 0 0 0 0 0 0 0 
0 0 0 0 0 0 0 0 
0 0 0 0 0 0 0 0 
0 0 0 0 0 0 0 0 
0 0 0 0 0 0 0 0 
0 0 0 0 0 0 0 0 
0 0 0 0 0 0 0 0 
0 0 0 0 0 0 0 0 
0 0 0 0 0 0 0 0 
0 0 0 0 0 0 0 0 
1.19521 2.83864e-06 0 0 1.19521 0 0 0 
0 0 0 0 0 0 0 0 
0 0 0 0 0 0 0 0 
0 0 0 0 0 0 0 0 
0 0 0 0 0 0 0 0 
0 0 0 0 0 0 0 0 
0 0 0 0 0 0 0 0 
0 0 0 0 0 0 0 0 
0 0 0 0 0 0 0 0 
0 0 0 0 0 0 0 0 
0 0 0 0 0 0 0 0 
0 0 0 0 0 0 0 0 
0 0 0 0 0 0 0 0 
0 0 0 0 0 0 0 0 
8.22242 2.00421e-05 0 0 8.22242 0 0 0 
0 0 0 0 0 0 0 0 
0 0 0 0 0 0 0 0 
0 0 0 0 0 0 0 0 
1.87171 4.5623e-06 0 0 1.87171 0 0 0 
0 0 0 0 0 0 0 0 
0 0 0 0 0 0 0 0 
0.258749 -2.02235e-05 -0.000151368 7.9722e-06 0 -0.258749 0 87.7992 
0.361241 -1.79653e-05 -0.000211326 -9.241e-07 0 -0.361241 0 52.5406 
2.32085 -0.000304472 0.000270482 -0.000276791 -1.16042 1.42122 -1.42122 721.715 
2.29641 -0.000337031 0.000258945 -0.000253374 -1.14821 1.40625 -1.40627 1044.27 
0.054194 -0.000451022 0.000474805 0.000513877 0 0.038321 0.038321 63.5751 
0.0543485 -0.000928567 0.0010917 0.00111035 1.28924e-09 0.0384302 0.0384302 59.1452 
0.0450054 -0.000203207 0.000188472 0.000206272 0 0.0318236 0.0318236 66.1919 
0.0622419 -0.000403358 0.000920425 -2.25949e-06 0 0.0622419 0 50.359 
0.0481129 -0.000395196 0.000711487 -4.64586e-06 0 0.0481129 0 50.1774 
0.0544185 -0.000332877 -9.2296e-06 0.000804733 0 0 0.0544185 41.4722 
0.0512098 -0.000504527 -1.37768e-06 0.000757283 0 0 0.0512098 63.5113 
0.0593987 -0.000994795 0.00117548 0.00123118 0 0.0420012 0.0420012 62.2417 
0.0519064 -0.000270132 0.000478937 0.00046801 -7.57757e-10 0.0367034 0.0367034 39.6818 
0.0421041 -0.000157549 0.00018996 0.000179337 0 0.0297721 0.0297721 46.9715 
2.2013 -0.000303585 -0.000255938 0.000251064 -1.10065 -1.34801 1.34801 837.842 
2.70378 -0.000367582 -0.000312098 0.000314973 -1.35189 -1.65571 1.65573 1024.15 
0.0512725 -0.000844324 -0.00102613 -0.00105128 0 -0.0362551 -0.0362551 52.3813 
0.0513483 -0.000415877 -0.000452617 -0.000484148 2.70526e-09 -0.0363087 -0.0363087 61.0884 
0.047644 -0.000135369 -0.000205574 -0.000212313 0 -0.0336894 -0.0336894 37.3284 
0.06697 -0.000372678 -0.000990344 5.20027e-06 0 -0.06697 0 46.5775 
0.051434 -0.000489355 -0.000760599 8.74346e-07 0 -0.051434 0 60.4806 
0.066021 -0.000487133 1.05225e-06 -0.00097631 0 0 -0.066021 61.1971 
0.0520215 -0.00044691 7.53695e-06 -0.000769287 0 0 -0.0520215 55.989 
0.0658845 -0.000369425 -0.00060992 -0.000592034 0 -0.0465874 -0.0465874 52.3227 
0.0536145 -0.000785799 -0.00109469 -0.00107762 -3.52417e-10 -0.0379112 -0.0379112 49.8097 
0.0541246 -0.000213699 -0.000233995 -0.000240735 0 -0.0382719 -0.0382719 62.7166 
0.35948 -3.17155e-05 1.71376e-06 -0.000210296 0 0 -0.35948 118.658 
0.553408 -2.66725e-05 -5.18098e-06 -0.000323744 0 0 -0.553408 93.4698 
0.311906 -2.65116e-05 -0.000177786 1.7258e-06 0 -0.311906 0 112.692 
0.510097 -5.71365e-05 -0.000290755 4.17612e-06 0 -0.510097 0 175.917 
0.391421 -3.37304e-05 -3.76547e-06 0.000228981 0 0 0.391421 115.344 
0.494718 -3.18581e-05 -8.62684e-07 0.00028941 0 0 0.494718 133.987 
0.497988 -2.73609e-05 0.000283853 4.70974e-06 0 0.497988 0 134.33 
0.301011 -2.5403e-05 0.000171576 -1.64379e-06 0 0.301011 0 76.4745 
0.22436 -1.43097e-05 0.000127885 4.49113e-06 0 0.22436 0 77.9394 
0.228296 -3.11562e-05 0.000130128 6.48596e-06 0 0.228296 0 89.3972 
0.222637 -7.14065e-06 -4.08272e-06 -0.000126903 0 0 -0.222637 45.6747 
0.15335 -2.02461e-05 5.68176e-06 -8.74097e-05 0 0 -0.15335 64.6998 
0.181414 -1.85539e-05 -0.000103406 5.57523e-06 0 -0.181414 0 57.896 
0.236647 -2.61333e-05 -0.000134889 -2.16916e-06 0 -0.236647 0 140.039 
0.205697 -3.7361e-06 -3.86151e-06 0.000117247 0 -4.03295e-08 0.205697 15.8084 
0.13556 -4.20977e-05 5.2628e-06 7.72692e-05 0 -2.65783e-08 0.13556 147.78 
0.276252 -1.3897e-05 0.000157464 -1.67734e-06 0 0.276252 0 36.5822 
0.23518 -2.23217e-05 0.000134052 2.88434e-06 0 0.23518 0 89.7055 
0.306876 -6.18524e-05 9.47786e-07 -0.00017492 0 0 -0.306876 195.96 
0.288391 -1.06932e-05 -1.64574e-06 -0.000164383 0 0 -0.288391 43.8051 
0.24355 -1.37302e-05 -0.000138824 4.93471e-06 0 -0.24355 0 150.648 
0.295989 -4.71114e-05 -0.000168714 -6.69701e-06 0 -0.295989 0 161.11 
0.341089 -8.58955e-06 -7.74349e-07 0.000194421 0 0 0.341089 28.4819 
0.280681 -1.9065e-05 -5.83555e-06 0.000159988 0 0 0.280681 79.0623 
0.351853 -2.03525e-05 -0.000200556 -1.42834e-06 0 -0.351853 0 86.7289 
0.484867 -4.29014e-05 -0.000276374 -4.69145e-06 0 -0.484867 0 186.006 
0.412273 -3.50171e-05 -3.80261e-06 0.000234996 0 0 0.412273 112.897 
0.525291 -3.03108e-05 1.45625e-06 0.000299416 0 0 0.525291 123.54 
0.388093 -5.43939e-06 0.000221213 -8.15827e-07 0 0.388093 0 20.4819 
0.43793 -3.77167e-05 0.00024962 -6.0111e-06 0 0.43793 0 162.117 
0.313133 -2.56374e-05 6.8184e-06 -0.000178486 0 0 -0.313133 94.6373 
0.610481 -5.51585e-05 -3.37904e-06 -0.000347974 0 0 -0.610481 161.754 
0.42003 -6.62846e-05 0.000239417 -1.01365e-05 0 0.42003 0 202.071 
0.475945 -2.11334e-05 0.000271289 3.00186e-08 0 0.475945 0 52.362 
0.350584 -3.29988e-05 1.89183e-05 -0.000199833 0 0 -0.350584 116.511 
0.417271 -1.62539e-05 6.1152e-06 -0.000237844 0 0 -0.417271 70.0693 
0.443219 -1.1837e-05 -0.000252635 -3.55415e-06 0 -0.443219 0 62.8894 
0.533425 -5.30916e-05 -0.000304052 6.81329e-07 0 -0.533425 0 142.412 
0.405359 -5.63484e-05 1.79351e-05 0.000231054 0 0 0.405359 174.534 
0.423353 -2.88351e-05 -9.89364e-06 0.000241311 0 0 0.423353 102.85 
0.392041 -2.88165e-05 0.000223463 3.0642e-06 0 0.392041 0 94.1998 
0.402714 -3.89175e-05 0.000229547 2.01835e-05 0 0.402714 0 141.373 
0.383935 -5.08771e-05 7.34427e-06 -0.000218843 0 0 -0.383935 182.914 
0.497838 -2.39229e-05 1.81567e-06 -0.000283768 0 0 -0.497838 84.1252 
0.394851 -2.74149e-05 -0.000225065 -1.20307e-05 0 -0.394851 0 129.359 
0.406963 -2.45396e-05 -0.000231969 3.98055e-06 0 -0.406963 0 104.642 
0.371626 -1.77978e-05 -6.60048e-06 0.000211827 0 0 0.371626 61.8892 
0.520387 -2.60281e-05 6.19927e-06 0.00029662 0 0 0.520387 83.7267 
0.334424 -2.46533e-05 1.479e-05 -0.000190622 0 0 -0.334424 114.918 
0.301688 -1.34822e-05 -2.75648e-06 -0.000171962 0 0 -0.301688 36.7331 
0.299475 -4.51626e-05 -0.000170701 4.14472e-06 0 -0.299475 0 122.147 
0.30783 -2.22769e-05 -0.000175463 1.72436e-06 0 -0.30783 0 47.5421 
0.338982 -3.94105e-05 4.7883e-06 0.00019322 0 0 0.338982 135.684 
0.274977 -7.29772e-06 1.33791e-06 0.000156737 0 0 0.274977 38.5068 
0.321948 -1.3663e-05 0.000183511 6.83731e-06 0 0.321948 0 49.323 
0.262884 -2.17541e-05 0.000149844 -3.28572e-06 0 0.262884 0 89.8177 
0.29103 -3.24002e-05 0.000165887 -6.2014e-06 0 0.29103 0 85.612 
0.306612 -4.8863e-05 0.000174769 1.11712e-05 0 0.306612 0 146.684 
0.302835 -6.34648e-06 5.40943e-07 -0.000172616 0 0 -0.302835 33.3995 
0.408799 -2.4023e-05 -2.8505e-06 -0.000233015 0 0 -0.408799 93.4493 
0.354052 -1.79492e-05 -0.00020181 -6.0599e-06 0 -0.354052 0 66.006 
0.243924 -3.78991e-05 -0.000139037 -4.07581e-07 0 -0.243924 0 110.209 