ITEM: TIMESTEP
280
ITEM: NUMBER OF SURFS
6916
ITEM: BOX BOUNDS oo rr rr
-20 20
-20 20
-20 20
ITEM: SURFS f_save[1] f_save[2] f_save[3] f_save[4] f_save[5] f_save[6] f_save[7] f_save[8] 
2.93045e-18 -2.19876e-19 0 0 -2.93045e-18 0 0 0 
2.59072e-19 0 0 -7.77484e-19 0 0 -2.59072e-19 0 
1.19033e-21 8.93054e-23 0 0 1.19033e-21 0 0 2.17739e-34 
1.4572e-18 -3.55192e-20 0 0 -1.4572e-18 0 0 1.34958e-30 
1.44909e-18 -1.81137e-21 0 0 -1.44909e-18 0 0 0 
1.357e-18 -1.69626e-21 0 0 -1.357e-18 0 0 0 
1.61214e-18 -2.01518e-21 0 0 -1.61214e-18 0 0 0 
1.4505e-18 -3.5356e-20 0 0 -1.4505e-18 0 0 1.33681e-30 
1.43204e-18 -3.40109e-20 0 0 -1.43204e-18 0 0 0 
1.48233e-18 -3.52052e-20 0 0 -1.48233e-18 0 0 0 
1.53528e-18 -3.6463e-20 0 0 -1.53528e-18 0 0 0 
1.52529e-18 -3.62256e-20 0 0 -1.52529e-18 0 0 0 
1.51223e-18 -3.68607e-20 0 0 -1.51223e-18 0 0 0 
1.48164e-18 -3.51889e-20 0 0 -1.48164e-18 0 0 0 
1.47843e-18 -3.51126e-20 0 0 -1.47843e-18 0 0 0 
1.47275e-18 -3.58983e-20 0 0 -1.47275e-18 0 0 0 
1.47983e-18 -3.60708e-20 0 0 -1.47983e-18 0 0 1.36487e-30 
1.48345e-18 -3.5232e-20 0 0 -1.48345e-18 0 0 1.36896e-30 
1.46606e-18 -3.48189e-20 0 0 -1.46606e-18 0 0 0 
1.4749e-18 -3.59505e-20 0 0 -1.4749e-18 0 0 1.36097e-30 
1.46183e-18 -3.47185e-20 0 0 -1.46183e-18 0 0 0 
1.50881e-18 -3.58343e-20 0 0 -1.50881e-18 0 0 0 
1.46527e-18 -3.57159e-20 0 0 -1.46527e-18 0 0 0 
1.48534e-18 -3.5277e-20 0 0 -1.48534e-18 0 0 0 
1.5453e-18 -3.67009e-20 0 0 -1.5453e-18 0 0 0 
1.49739e-18 -3.55629e-20 0 0 -1.49739e-18 0 0 0 
1.50728e-18 -1.8841e-21 0 0 -1.50728e-18 0 0 0 
1.44148e-18 -3.42351e-20 0 0 -1.44148e-18 0 0 0 
1.45886e-18 -3.4648e-20 0 0 -1.45886e-18 0 0 0 
1.56649e-18 -1.95811e-21 0 0 -1.56649e-18 0 0 0 
1.39967e-18 -3.32422e-20 0 0 -1.39967e-18 0 0 0 
1.41546e-18 -3.3617e-20 0 0 -1.41546e-18 0 0 0 
1.62614e-18 -2.03269e-21 0 0 -1.62614e-18 0 0 0 
1.5155e-18 -3.69402e-20 0 0 -1.5155e-18 0 0 1.39505e-30 
1.47328e-18 -3.49905e-20 0 0 -1.47328e-18 0 0 0 
1.58749e-18 -1.98437e-21 0 0 -1.58749e-18 0 0 0 
1.44216e-18 -3.51525e-20 0 0 -1.44216e-18 0 0 1.32575e-30 
1.41935e-18 -3.37097e-20 0 0 -1.41935e-18 0 0 0 
1.47534e-18 -1.84418e-21 0 0 -1.47534e-18 0 0 0 
1.42289e-18 -3.37938e-20 0 0 -1.42289e-18 0 0 0 
1.43705e-18 -3.50281e-20 0 0 -1.43705e-18 0 0 0 
1.70006e-18 -2.12509e-21 0 0 -1.70006e-18 0 0 0 
1.44521e-18 -3.43239e-20 0 0 -1.44521e-18 0 0 0 
1.45211e-18 -3.53953e-20 0 0 -1.45211e-18 0 0 0 
1.45795e-18 -1.82244e-21 0 0 -1.45795e-18 0 0 0 
1.51198e-18 -3.59097e-20 0 0 -1.51198e-18 0 0 0 
1.4475e-18 -3.43782e-20 0 0 -1.4475e-18 0 0 0 
1.59244e-18 -1.99055e-21 0 0 -1.59244e-18 0 0 0 
1.26563e-18 -1.58205e-21 0 0 -1.26563e-18 0 0 0 
1.34975e-18 -1.68719e-21 0 0 -1.34975e-18 0 0 0 
1.4719e-18 -3.49578e-20 0 0 -1.4719e-18 0 0 1.35971e-30 
1.48455e-18 -3.52582e-20 0 0 -1.48455e-18 0 0 0 
1.46295e-18 -3.47453e-20 0 0 -1.46295e-18 0 0 1.34427e-30 
1.65036e-18 -2.06295e-21 0 0 -1.65036e-18 0 0 0 
1.47334e-18 -3.49918e-20 0 0 -1.47334e-18 0 0 0 
1.53686e-18 -3.65005e-20 0 0 -1.53686e-18 0 0 0 
1.55218e-18 -3.68642e-20 0 0 -1.55218e-18 0 0 0 
1.54482e-18 -1.93102e-21 0 0 -1.54482e-18 0 0 0 
1.52929e-18 -3.63206e-20 0 0 -1.52929e-18 0 0 0 
1.49181e-18 -3.54304e-20 0 0 -1.49181e-18 0 0 0 
1.49549e-18 -3.5518e-20 0 0 -1.49549e-18 0 0 0 
1.67703e-18 -2.09631e-21 0 0 -1.67703e-18 0 0 0 
1.48528e-18 -3.52755e-20 0 0 -1.48528e-18 0 0 0 
1.41895e-18 -3.45868e-20 0 0 -1.41895e-18 0 0 1.31113e-30 
1.57085e-18 -1.96357e-21 0 0 -1.57085e-18 0 0 0 
1.41888e-18 -3.36986e-20 0 0 -1.41888e-18 0 0 0 
1.50619e-18 -3.57719e-20 0 0 -1.50619e-18 0 0 0 
1.59808e-18 -1.9976e-21 0 0 -1.59808e-18 0 0 0 
1.4551e-18 -3.45588e-20 0 0 -1.4551e-18 0 0 0 
1.43651e-18 -3.41171e-20 0 0 -1.43651e-18 0 0 0 
1.45946e-18 -1.82432e-21 0 0 -1.45946e-18 0 0 0 
1.45946e-18 -3.46622e-20 0 0 -1.45946e-18 0 0 0 
1.42477e-18 -3.38384e-20 0 0 -1.42477e-18 0 0 0 
1.38563e-18 -1.73204e-21 0 0 -1.38563e-18 0 0 0 
1.64876e-18 -2.06096e-21 0 0 -1.64876e-18 0 0 0 
1.51011e-18 -3.5865e-20 0 0 -1.51011e-18 0 0 0 
1.49909e-18 -3.56033e-20 0 0 -1.49909e-18 0 0 0 
1.52649e-18 -1.90812e-21 0 0 -1.52649e-18 0 0 0 
1.46348e-18 -3.47575e-20 0 0 -1.46348e-18 0 0 0 
1.46292e-18 -3.47442e-20 0 0 -1.46292e-18 0 0 0 
1.48439e-18 -3.52543e-20 0 0 -1.48439e-18 0 0 0 
1.49658e-18 -3.55438e-20 0 0 -1.49658e-18 0 0 0 
1.49376e-18 -3.54768e-20 0 0 -1.49376e-18 0 0 0 
1.48543e-18 -3.62076e-20 0 0 -1.48543e-18 0 0 0 
1.46181e-18 -3.65454e-20 0 0 -1.46181e-18 0 0 0 
1.49189e-18 -3.72973e-20 0 0 -1.49189e-18 0 0 0 
1.42772e-18 -3.56929e-20 0 0 -1.42772e-18 0 0 0 
1.41407e-18 -3.5352e-20 0 0 -1.41407e-18 0 0 0 
1.47173e-18 -1.26569e-18 0 0 -1.47173e-18 0 0 1.35741e-30 
1.47341e-18 -6.99868e-19 0 0 -1.47341e-18 0 0 1.35777e-30 
1.46773e-18 -6.97173e-19 0 0 -1.46773e-18 0 0 0 
1.46567e-18 -6.96193e-19 0 0 -1.46567e-18 0 0 0 
1.46722e-18 -7.15268e-19 0 0 -1.46722e-18 0 0 0 
1.47545e-18 -1.26889e-18 0 0 -1.47545e-18 0 0 1.36012e-30 
1.48136e-18 -7.03645e-19 0 0 -1.48136e-18 0 0 0 
1.47417e-18 -7.0023e-19 0 0 -1.47417e-18 0 0 0 
1.47314e-18 -6.9974e-19 0 0 -1.47314e-18 0 0 0 
1.4771e-18 -7.20087e-19 0 0 -1.4771e-18 0 0 0 
1.47949e-18 -3.69872e-20 0 0 -1.47949e-18 0 0 1.36313e-30 
1.43097e-18 -3.57743e-20 0 0 -1.43097e-18 0 0 0 
1.50765e-18 -3.76913e-20 0 0 -1.50765e-18 0 0 1.38887e-30 
4.63783e-21 0 0 -2.71313e-20 0 0 -4.63783e-21 0 
2.4521e-20 3.06513e-23 0 0 2.4521e-20 0 0 0 
5.39045e-20 1.28023e-21 0 0 5.39045e-20 0 0 0 
9.85733e-21 1.23218e-23 0 0 9.85733e-21 0 0 0 
3.48352e-20 8.27335e-22 0 0 3.48352e-20 0 0 0 
7.79002e-20 1.85013e-21 0 0 7.79002e-20 0 0 0 
1.88075e-20 4.46678e-22 0 0 1.88075e-20 0 0 0 
6.47343e-20 1.53745e-21 0 0 6.47343e-20 0 0 0 
2.62973e-20 6.24559e-22 0 0 2.62973e-20 0 0 0 
6.89183e-20 1.63681e-21 0 0 6.89183e-20 0 0 0 
6.92587e-20 8.44091e-22 0 0 6.92587e-20 0 0 0 
2.10249e-20 4.99344e-22 0 0 2.10249e-20 0 0 1.91144e-32 
3.38805e-20 8.04664e-22 0 0 3.38805e-20 0 0 0 
2.87315e-20 6.82373e-22 0 0 2.87315e-20 0 0 0 
6.76283e-20 1.60617e-21 0 0 6.76283e-20 0 0 0 
3.29486e-20 7.82528e-22 0 0 3.29486e-20 0 0 0 
4.25654e-20 1.01093e-21 0 0 4.25654e-20 0 0 0 
5.81772e-20 1.38171e-21 0 0 5.81772e-20 0 0 0 
1.83592e-20 2.29491e-23 0 0 1.83592e-20 0 0 0 
4.91184e-20 1.16656e-21 0 0 4.91184e-20 0 0 0 
2.76651e-20 6.57046e-22 0 0 2.76651e-20 0 0 0 
3.29644e-20 4.12055e-23 0 0 3.29644e-20 0 0 0 
3.20686e-20 7.61629e-22 0 0 3.20686e-20 0 0 0 
4.11735e-20 9.7787e-22 0 0 4.11735e-20 0 0 0 
1.25387e-20 1.56734e-23 0 0 1.25387e-20 0 0 0 
1.81828e-20 4.31842e-22 0 0 1.81828e-20 0 0 0 
1.77217e-20 4.20891e-22 0 0 1.77217e-20 0 0 0 
4.74068e-20 5.92585e-23 0 0 4.74068e-20 0 0 0 
1.62624e-20 2.0328e-23 0 0 1.62624e-20 0 0 0 
2.79443e-20 6.63676e-22 0 0 2.79443e-20 0 0 0 
2.64376e-20 6.27892e-22 0 0 2.64376e-20 0 0 0 
4.71885e-20 1.12073e-21 0 0 4.71885e-20 0 0 0 
4.05925e-20 9.6407e-22 0 0 4.05925e-20 0 0 0 
0 0 0 0 0 0 0 0 
2.58642e-20 6.14273e-22 0 0 2.58642e-20 0 0 0 
2.49155e-20 5.91743e-22 0 0 2.49155e-20 0 0 0 
1.9392e-20 2.424e-23 0 0 1.9392e-20 0 0 0 
4.46405e-20 5.58007e-23 0 0 4.46405e-20 0 0 0 
3.91341e-20 9.29434e-22 0 0 3.91341e-20 0 0 0 
3.68852e-20 8.76022e-22 0 0 3.68852e-20 0 0 0 
3.75881e-20 8.92718e-22 0 0 3.75881e-20 0 0 0 
1.53399e-20 1.91749e-23 0 0 1.53399e-20 0 0 0 
2.9237e-20 6.94379e-22 0 0 2.9237e-20 0 0 0 
3.33945e-20 7.93121e-22 0 0 3.33945e-20 0 0 0 
4.37996e-20 5.47495e-23 0 0 4.37996e-20 0 0 0 
6.90379e-20 1.63965e-21 0 0 6.90379e-20 0 0 0 
3.73444e-20 8.86928e-22 0 0 3.73444e-20 0 0 0 
5.21785e-20 1.23924e-21 0 0 5.21785e-20 0 0 0 
2.52827e-20 3.16034e-23 0 0 2.52827e-20 0 0 0 
1.05446e-20 2.57024e-22 0 0 1.05446e-20 0 0 0 
3.95569e-20 4.94464e-23 0 0 3.95569e-20 0 0 0 
3.67696e-20 8.96258e-22 0 0 3.67696e-20 0 0 3.37038e-32 
5.53024e-20 1.31344e-21 0 0 5.53024e-20 0 0 0 
5.48927e-20 1.33801e-21 0 0 5.48927e-20 0 0 0 
6.12552e-20 1.49309e-21 0 0 6.12552e-20 0 0 5.66845e-32 
4.24259e-20 1.00762e-21 0 0 4.24259e-20 0 0 0 
0 0 0 0 0 0 0 0 
1.63755e-20 3.99153e-22 0 0 1.63755e-20 0 0 0 
3.72336e-20 4.65423e-23 0 0 3.72336e-20 0 0 0 
2.63323e-20 3.29156e-23 0 0 2.63323e-20 0 0 0 
6.34351e-20 7.9294e-23 0 0 6.34351e-20 0 0 0 
5.9116e-20 7.38953e-23 0 0 5.9116e-20 0 0 0 
2.99637e-21 3.74548e-24 0 0 2.99637e-21 0 0 0 
4.83644e-21 6.0456e-24 0 0 4.83644e-21 0 0 0 
2.49096e-20 6.07171e-22 0 0 2.49096e-20 0 0 0 
4.74831e-20 1.12773e-21 0 0 4.74831e-20 0 0 0 
5.44454e-20 6.80569e-23 0 0 5.44454e-20 0 0 0 
4.33432e-20 1.05649e-21 0 0 4.33432e-20 0 0 0 
4.80661e-20 1.14157e-21 0 0 4.80661e-20 0 0 0 
2.90622e-20 3.63278e-23 0 0 2.90622e-20 0 0 0 
4.14661e-20 1.01074e-21 0 0 4.14661e-20 0 0 0 
2.00165e-20 4.75394e-22 0 0 2.00165e-20 0 0 1.80646e-32 
2.2208e-20 5.41322e-22 0 0 2.2208e-20 0 0 0 
1.60559e-20 3.81329e-22 0 0 1.60559e-20 0 0 1.43901e-32 
3.43868e-20 8.1669e-22 0 0 3.43868e-20 0 0 0 
7.03269e-20 1.67027e-21 0 0 7.03269e-20 0 0 0 
5.7009e-20 1.35397e-21 0 0 5.7009e-20 0 0 0 
2.43455e-20 5.78209e-22 0 0 2.43455e-20 0 0 0 
1.90418e-20 4.52244e-22 0 0 1.90418e-20 0 0 1.7413e-32 
4.68829e-20 1.14277e-21 0 0 4.68829e-20 0 0 4.23987e-32 
2.29703e-20 5.59902e-22 0 0 2.29703e-20 0 0 0 
9.01787e-20 5.63619e-23 0 0 9.01787e-20 0 0 0 
4.4897e-20 5.47182e-22 0 0 4.4897e-20 0 0 0 
3.68459e-19 -3.86879e-19 -4.73828e-19 -4.73828e-19 -1.8423e-19 -2.25634e-19 -2.25634e-19 -1.24127e-31 
4.14967e-21 0 0 -6.13648e-19 0 0 -4.14967e-21 0 
2.8101e-21 0 5.69287e-19 -5.69287e-19 0 1.98704e-21 -1.98704e-21 -1.46363e-34 
3.68462e-19 -3.86882e-19 4.73832e-19 4.73832e-19 -1.84231e-19 2.25636e-19 2.25636e-19 -1.24971e-31 
4.14617e-21 0 0 6.13131e-19 0 0 4.14617e-21 0 
3.17765e-21 0 -2.89855e-19 2.89855e-19 0 -2.24694e-21 2.24694e-21 1.94354e-34 
5.32053e-21 0 -3.11251e-20 0 0 -5.32053e-21 0 0 
5.29772e-21 0 3.09916e-20 0 0 5.29772e-21 0 0 
5.09308e-21 0 0 -2.90306e-20 0 0 -5.09308e-21 0 
5.23792e-21 0 0 2.98561e-20 0 0 5.23792e-21 0 
5.10306e-21 0 0 -2.90875e-20 0 0 -5.10306e-21 0 
5.1503e-21 0 0 2.93567e-20 0 0 5.1503e-21 0 
5.3864e-21 0 0 3.07025e-20 0 0 5.3864e-21 0 
5.33513e-21 0 0 -3.04102e-20 0 0 -5.33513e-21 0 
4.90188e-21 0 0 -2.79407e-20 0 0 -4.90188e-21 0 
4.85732e-21 0 0 2.76867e-20 0 0 4.85732e-21 0 
5.1298e-21 0 0 -2.92398e-20 0 0 -5.1298e-21 0 
5.11407e-21 0 0 2.91502e-20 0 0 5.11407e-21 0 
5.36042e-21 0 -3.05544e-20 0 0 -5.36042e-21 0 0 
5.12261e-21 0 2.91989e-20 0 0 5.12261e-21 0 0 
5.64083e-21 0 0 -3.21527e-20 0 0 -5.64083e-21 0 
5.73043e-21 0 0 3.26634e-20 0 0 5.73043e-21 0 
5.66165e-21 0 -3.22714e-20 0 0 -5.66165e-21 0 0 
5.61557e-21 0 3.20087e-20 0 0 5.61557e-21 0 0 
5.49119e-21 0 -3.12998e-20 0 0 -5.49119e-21 0 0 
5.53613e-21 0 3.15559e-20 0 0 5.53613e-21 0 0 
5.89341e-21 0 3.44764e-20 0 0 5.89341e-21 0 0 
5.91677e-21 0 -3.46131e-20 0 0 -5.91677e-21 0 0 
5.59452e-21 0 3.27279e-20 0 0 5.59452e-21 0 0 
5.543e-21 0 -3.24266e-20 0 0 -5.543e-21 0 0 
5.21371e-21 0 -2.97181e-20 0 0 -5.21371e-21 0 0 
5.00214e-21 0 2.85122e-20 0 0 5.00214e-21 0 0 
4.68629e-21 0 2.74148e-20 0 0 4.68629e-21 0 0 
4.82423e-21 0 -1.41109e-20 0 0 -4.82423e-21 0 0 
4.72743e-21 0 0 1.38277e-20 0 0 4.72743e-21 0 
6.65547e-21 0 0 -3.79362e-20 0 0 -6.65547e-21 0 
6.34666e-21 0 0 3.61759e-20 0 0 6.34666e-21 0 
5.41589e-21 0 0 3.16829e-20 0 0 5.41589e-21 0 
5.33095e-21 0 0 -3.11861e-20 0 0 -5.33095e-21 0 
5.28444e-21 0 -3.01213e-20 0 0 -5.28444e-21 0 0 
5.18629e-21 0 2.95619e-20 0 0 5.18629e-21 0 0 
5.62849e-21 0 -3.20824e-20 0 0 -5.62849e-21 0 0 
5.53292e-21 0 3.15376e-20 0 0 5.53292e-21 0 0 
5.28094e-21 0 0 3.01013e-20 0 0 5.28094e-21 0 
5.44077e-21 0 0 -3.10124e-20 0 0 -5.44077e-21 0 
5.7715e-21 0 -3.28976e-20 0 0 -5.7715e-21 0 0 
5.61232e-21 0 3.19902e-20 0 0 5.61232e-21 0 0 
5.38887e-21 0 0 3.07166e-20 0 0 5.38887e-21 0 
5.56256e-21 0 0 -3.17066e-20 0 0 -5.56256e-21 0 
5.00559e-21 0 -2.85318e-20 0 0 -5.00559e-21 0 0 
4.9105e-21 0 2.79898e-20 0 0 4.9105e-21 0 0 
5.92525e-21 0 0 3.3774e-20 0 0 5.92525e-21 0 
6.26313e-21 0 0 -3.56998e-20 0 0 -6.26313e-21 0 
5.74393e-21 0 3.27404e-20 0 0 5.74393e-21 0 0 
5.71781e-21 0 -3.25915e-20 0 0 -5.71781e-21 0 0 
5.25794e-21 0 2.99703e-20 0 0 5.25794e-21 0 0 
5.14453e-21 0 -2.93238e-20 0 0 -5.14453e-21 0 0 
5.82987e-21 0 0 -3.32303e-20 0 0 -5.82987e-21 0 
5.72801e-21 0 0 3.26497e-20 0 0 5.72801e-21 0 
5.7436e-21 0 0 3.27385e-20 0 0 5.7436e-21 0 
5.52692e-21 0 0 -3.15035e-20 0 0 -5.52692e-21 0 
6.48066e-21 0 0 3.69397e-20 0 0 6.48066e-21 0 
5.76585e-21 0 0 -3.28654e-20 0 0 -5.76585e-21 0 
5.62464e-21 0 -3.20605e-20 0 0 -5.62464e-21 0 0 
5.50293e-21 0 3.13667e-20 0 0 5.50293e-21 0 0 
5.33621e-21 0 -3.04164e-20 0 0 -5.33621e-21 0 0 
5.24674e-21 0 2.99064e-20 0 0 5.24674e-21 0 0 
4.52029e-21 0 2.64437e-20 0 0 4.52029e-21 0 0 
4.66079e-21 0 0 -2.72656e-20 0 0 -4.66079e-21 0 
5.18878e-21 0 -3.03543e-20 0 0 -5.18878e-21 0 0 
5.24343e-21 0 3.06741e-20 0 0 5.24343e-21 0 0 
5.76578e-21 0 3.37298e-20 0 0 5.76578e-21 0 0 
5.74433e-21 0 -3.36044e-20 0 0 -5.74433e-21 0 0 
5.24803e-21 0 0 -3.0701e-20 0 0 -5.24803e-21 0 
5.32893e-21 0 0 3.11742e-20 0 0 5.32893e-21 0 
5.51223e-21 0 0 3.22465e-20 0 0 5.51223e-21 0 
5.48035e-21 0 0 -3.206e-20 0 0 -5.48035e-21 0 
5.95032e-21 0 -3.39168e-20 0 0 -5.95032e-21 0 0 
6.27752e-21 0 3.57819e-20 0 0 6.27752e-21 0 0 
5.80993e-21 0 0 -3.39881e-20 0 0 -5.80993e-21 0 
5.92343e-21 0 0 3.46521e-20 0 0 5.92343e-21 0 
4.51168e-21 0 -1.31967e-20 0 0 -4.51168e-21 0 0 
5.65382e-21 0 -3.30748e-20 0 0 -5.65382e-21 0 0 
5.57804e-21 0 3.26316e-20 0 0 5.57804e-21 0 0 
5.10543e-21 0 -2.98667e-20 0 0 -5.10543e-21 0 0 
5.10955e-21 0 2.98909e-20 0 0 5.10955e-21 0 0 
5.24186e-21 0 -2.98786e-20 0 0 -5.24186e-21 0 0 
5.43083e-21 0 3.09557e-20 0 0 5.43083e-21 0 0 
5.43928e-21 0 0 -3.18198e-20 0 0 -5.43928e-21 0 
5.44653e-21 0 0 3.18622e-20 0 0 5.44653e-21 0 
6.04343e-21 0 3.44476e-20 0 0 6.04343e-21 0 0 
5.90745e-21 0 -3.36725e-20 0 0 -5.90745e-21 0 0 
5.16611e-21 0 0 2.94468e-20 0 0 5.16611e-21 0 
5.09241e-21 0 0 -2.90267e-20 0 0 -5.09241e-21 0 
4.58755e-21 0 0 2.68372e-20 0 0 4.58755e-21 0 
4.73841e-21 0 1.38598e-20 0 0 4.73841e-21 0 0 
5.56332e-21 0 -3.17109e-20 0 0 -5.56332e-21 0 0 
5.31613e-21 0 3.03019e-20 0 0 5.31613e-21 0 0 
5.32324e-21 0 3.03425e-20 0 0 5.32324e-21 0 0 
5.41128e-21 0 -3.08443e-20 0 0 -5.41128e-21 0 0 
4.9874e-21 0 2.84282e-20 0 0 4.9874e-21 0 0 
5.14519e-21 0 -2.93276e-20 0 0 -5.14519e-21 0 0 
5.02482e-21 0 0 -2.86415e-20 0 0 -5.02482e-21 0 
5.08592e-21 0 0 2.89898e-20 0 0 5.08592e-21 0 
5.95124e-21 0 3.39221e-20 0 0 5.95124e-21 0 0 
5.70666e-21 0 -3.25279e-20 0 0 -5.70666e-21 0 0 
5.10837e-21 0 0 -2.91177e-20 0 0 -5.10837e-21 0 
5.1658e-21 0 0 2.9445e-20 0 0 5.1658e-21 0 
5.02137e-21 0 2.86218e-20 0 0 5.02137e-21 0 0 
5.13029e-21 0 -2.92427e-20 0 0 -5.13029e-21 0 0 
5.33608e-21 0 -3.04157e-20 0 0 -5.33608e-21 0 0 
5.10397e-21 0 2.90926e-20 0 0 5.10397e-21 0 0 
5.16674e-21 0 0 -2.94504e-20 0 0 -5.16674e-21 0 
5.05255e-21 0 0 2.87995e-20 0 0 5.05255e-21 0 
5.30677e-21 0 0 -3.02486e-20 0 0 -5.30677e-21 0 
5.28585e-21 0 0 3.01293e-20 0 0 5.28585e-21 0 
4.95268e-21 0 0 2.82303e-20 0 0 4.95268e-21 0 
5.12335e-21 0 0 -2.92031e-20 0 0 -5.12335e-21 0 
4.88712e-21 0 -2.78566e-20 0 0 -4.88712e-21 0 0 
4.88499e-21 0 2.78445e-20 0 0 4.88499e-21 0 0 
4.84006e-21 0 0 2.75884e-20 0 0 4.84006e-21 0 
4.97958e-21 0 0 -2.83836e-20 0 0 -4.97958e-21 0 
5.09155e-21 0 0 -2.90218e-20 0 0 -5.09155e-21 0 
5.32704e-21 0 0 3.03641e-20 0 0 5.32704e-21 0 
5.29467e-21 0 3.01796e-20 0 0 5.29467e-21 0 0 
5.24212e-21 0 -2.98801e-20 0 0 -5.24212e-21 0 0 
4.96512e-21 0 -2.83012e-20 0 0 -4.96512e-21 0 0 
4.9689e-21 0 2.83228e-20 0 0 4.9689e-21 0 0 
5.13892e-21 0 0 2.92918e-20 0 0 5.13892e-21 0 
5.1824e-21 0 0 -2.95397e-20 0 0 -5.1824e-21 0 
5.31731e-21 0 3.03087e-20 0 0 5.31731e-21 0 0 
5.45544e-21 0 -3.1096e-20 0 0 -5.45544e-21 0 0 
5.10389e-21 0 0 2.90922e-20 0 0 5.10389e-21 0 
5.10593e-21 0 0 -2.91038e-20 0 0 -5.10593e-21 0 
6.31468e-21 -8.55867e-24 0 -4.49921e-21 -1.20121e-23 0 -6.31466e-21 -2.14193e-34 
1.3279e-20 -1.62791e-22 -5.46994e-23 -2.44642e-21 -8.81449e-22 -2.96175e-22 -1.32464e-20 7.0064e-34 
8.6785e-21 -6.22032e-23 -2.73635e-23 -1.60507e-21 -3.36027e-22 -1.4782e-22 -8.67073e-21 4.4821e-34 
1.55781e-20 -1.91841e-22 -1.28341e-22 -2.81909e-21 -1.05656e-21 -7.06838e-22 -1.55261e-20 -1.33298e-33 
6.87422e-21 -8.18115e-25 -2.45838e-27 -1.71856e-21 -3.27246e-24 -9.83351e-27 -6.87422e-21 -2.76165e-33 
7.65235e-21 -1.08414e-23 -5.68534e-23 -1.83807e-21 -4.51131e-23 -2.36578e-22 -7.64855e-21 1.44899e-34 
6.80296e-21 -1.2026e-23 -3.80522e-23 -1.09665e-21 -7.45531e-23 -2.35898e-22 -6.79846e-21 -4.82375e-34 
6.54115e-21 -2.13351e-23 -5.14522e-23 -1.18194e-21 -1.17942e-22 -2.84433e-22 -6.5339e-21 -2.47156e-34 
9.17046e-21 -6.47655e-23 -2.89147e-23 -1.69606e-21 -3.49876e-22 -1.56203e-22 -9.16246e-21 1.05668e-33 
8.03364e-21 -4.49113e-23 -7.59923e-23 -1.4448e-21 -2.49259e-22 -4.21758e-22 -8.01869e-21 -2.01611e-33 
9.66506e-21 -9.23732e-23 -7.06309e-23 -1.75642e-21 -5.07191e-22 -3.87811e-22 -9.64395e-21 5.66499e-34 
5.26837e-21 -8.2051e-24 -1.99566e-23 -1.72294e-21 -2.50874e-23 -6.10178e-23 -5.26796e-21 -2.56312e-34 
7.25088e-21 -2.10223e-23 -1.35199e-23 -1.19527e-21 -1.275e-22 -8.19977e-23 -7.24929e-21 3.6763e-34 
9.26025e-21 -1.2729e-23 -4.39706e-23 -1.10956e-21 -1.06144e-22 -3.66661e-22 -9.25238e-21 -2.32295e-33 
6.3969e-21 -1.10996e-23 -1.80529e-23 -1.04468e-21 -6.79525e-23 -1.10521e-22 -6.39558e-21 8.52716e-34 
6.80043e-21 -2.15692e-24 0 -1.27508e-22 -1.15019e-22 0 -6.79945e-21 4.58488e-34 
6.78764e-21 -2.19356e-23 3.55943e-23 -1.24188e-21 -1.19823e-22 1.94434e-22 -6.78379e-21 -1.40194e-33 
6.61118e-21 -2.42267e-23 0 -2.35523e-21 -6.80012e-23 0 -6.61083e-21 5.2369e-34 
7.32978e-21 -9.34257e-25 2.35212e-23 -1.76574e-21 -3.87786e-24 9.76304e-23 -7.32912e-21 9.86764e-34 
6.7871e-21 -9.61558e-24 5.04251e-23 -1.63024e-21 -4.00122e-23 2.09828e-22 -6.78374e-21 -7.20916e-34 
1.07047e-20 -1.0243e-22 8.81918e-23 -1.93719e-21 -5.64647e-22 4.86159e-22 -1.06788e-20 3.76799e-34 
7.83791e-21 -5.54262e-23 2.86395e-23 -1.44699e-21 -2.99948e-22 1.54987e-22 -7.83063e-21 -7.53769e-34 
9.69367e-21 -8.38766e-23 1.0626e-22 -1.73365e-21 -4.67571e-22 5.92349e-22 -9.66425e-21 1.84287e-33 
7.04303e-21 -3.52227e-23 4.44144e-23 -1.28462e-21 -1.92923e-22 2.43268e-22 -7.03619e-21 -4.47381e-34 
7.76784e-21 -1.51201e-23 4.34492e-23 -1.25219e-21 -9.37334e-23 2.69352e-22 -7.7626e-21 1.8362e-33 
6.86055e-21 -1.18841e-23 1.27921e-23 -1.13093e-21 -7.20839e-23 7.75913e-23 -6.85973e-21 -1.35593e-34 
7.55535e-21 -7.06232e-23 0 -2.69159e-21 -1.98172e-22 0 -7.55275e-21 2.28113e-33 
6.39729e-21 -2.17128e-24 0 -4.55807e-21 -3.04741e-24 0 -6.39729e-21 6.93262e-34 
6.59954e-21 -1.08682e-23 3.87653e-23 -1.60517e-21 -4.46695e-23 1.5933e-22 -6.59746e-21 1.67858e-34 
1.21983e-20 -1.45145e-22 0 -2.23e-21 -7.92279e-22 0 -1.21726e-20 -9.50372e-34 
7.14101e-21 -9.67866e-24 5.08797e-21 0 -1.35841e-23 7.141e-21 0 -5.40008e-34 
1.39382e-20 -1.70872e-22 2.56786e-21 -5.74147e-23 -9.25204e-22 1.39039e-20 -3.10877e-22 6.98312e-35 
8.01613e-21 -5.74557e-23 1.48257e-21 -2.52751e-23 -3.1038e-22 8.00896e-21 -1.36538e-22 -4.66788e-34 
1.64546e-20 -2.02635e-22 2.97771e-21 -1.35562e-22 -1.11601e-21 1.63997e-20 -7.46607e-22 -8.90233e-34 
5.63615e-21 -6.7077e-25 1.40904e-21 -2.01561e-27 -2.68308e-24 5.63615e-21 -8.06245e-27 8.97621e-34 
7.7277e-21 -1.09482e-23 1.85617e-21 -5.74132e-23 -4.55573e-23 7.72387e-21 -2.38907e-22 3.84608e-34 
5.87036e-21 -1.03774e-23 9.4631e-22 -3.28357e-23 -6.43329e-23 5.86648e-21 -2.03559e-22 -4.47729e-34 
7.97521e-21 -2.60125e-23 1.44107e-21 -6.27325e-23 -1.438e-22 7.96637e-21 -3.46791e-22 -5.41843e-34 
8.12556e-21 -5.7386e-23 1.50281e-21 -2.56201e-23 -3.1001e-22 8.11846e-21 -1.38405e-22 1.14726e-33 
9.82257e-21 -5.49122e-23 1.76653e-21 -9.29142e-23 -3.04764e-22 9.80429e-21 -5.15676e-22 -2.50761e-33 
1.10031e-20 -1.05161e-22 1.99958e-21 -8.04087e-23 -5.77404e-22 1.0979e-20 -4.41498e-22 2.99773e-34 
5.727e-21 -8.91938e-24 1.87293e-21 -2.16938e-23 -2.72713e-23 5.72655e-21 -6.63297e-23 6.96642e-35 
5.94689e-21 -1.72417e-23 9.80315e-22 -1.10885e-23 -1.0457e-22 5.94559e-21 -6.72514e-23 5.08425e-34 
7.62986e-21 -1.04879e-23 9.14208e-22 -3.6229e-23 -8.7456e-23 7.62337e-21 -3.02105e-22 -3.00406e-33 
5.69832e-21 -9.88749e-24 9.30594e-22 -1.60814e-23 -6.05317e-23 5.69715e-21 -9.84512e-23 1.23433e-33 
5.13892e-21 -1.62993e-24 9.63549e-23 0 -8.69173e-23 5.13818e-21 0 7.33582e-34 
6.81383e-21 -2.20202e-23 1.24667e-21 3.57316e-23 -1.20286e-22 6.80997e-21 1.95185e-22 -1.09431e-33 
6.20315e-21 -2.27315e-23 2.20987e-21 0 -6.38043e-23 6.20282e-21 0 2.28059e-34 
6.42279e-21 -8.18652e-25 1.54725e-21 2.06107e-23 -3.39801e-24 6.42222e-21 8.55496e-23 4.69293e-34 
7.49038e-21 -1.06119e-23 1.79917e-21 5.56501e-23 -4.41583e-23 7.48667e-21 2.3157e-22 -1.66007e-33 
1.107e-20 -1.05925e-22 2.00329e-21 9.12011e-23 -5.83915e-22 1.10432e-20 5.02748e-22 8.31801e-34 
7.65405e-21 -5.4126e-23 1.41305e-21 2.79677e-23 -2.92912e-22 7.64694e-21 1.51352e-22 2.88247e-33 
1.09184e-20 -9.44739e-23 1.95269e-21 1.19686e-22 -5.26646e-22 1.08853e-20 6.67189e-22 9.60978e-34 
8.86933e-21 -4.43561e-23 1.61773e-21 5.59312e-23 -2.42949e-22 8.86071e-21 3.06349e-22 -1.11139e-33 
8.65392e-21 -1.68449e-23 1.39502e-21 4.84055e-23 -1.04426e-22 8.64809e-21 3.00077e-22 1.87351e-33 
6.74819e-21 -1.16895e-23 1.11241e-21 1.25826e-23 -7.09034e-23 6.74739e-21 7.63206e-23 -1.51239e-34 
7.71121e-21 -7.20801e-23 2.74712e-21 0 -2.0226e-22 7.70855e-21 0 2.17015e-33 
6.18147e-21 -2.09803e-24 4.4043e-21 0 -2.94461e-24 6.18147e-21 0 8.28415e-34 
6.44582e-21 -1.0615e-23 1.56779e-21 3.78624e-23 -4.3629e-23 6.44379e-21 1.55619e-22 -2.13797e-34 
1.37932e-20 -1.64123e-22 2.52157e-21 0 -8.95869e-22 1.37641e-20 0 -1.46897e-33 
6.49316e-21 -8.80058e-24 0 4.62638e-21 -1.23517e-23 0 6.49315e-21 -4.60967e-34 
1.28801e-20 -1.57902e-22 5.30565e-23 2.37294e-21 -8.54975e-22 2.87279e-22 1.28485e-20 -5.51667e-34 
8.27583e-21 -5.9317e-23 2.60939e-23 1.5306e-21 -3.20436e-22 1.40962e-22 8.26842e-21 -1.27728e-34 
1.59078e-20 -1.95902e-22 1.31058e-22 2.87876e-21 -1.07893e-21 7.21798e-22 1.58547e-20 -2.60441e-34 
6.34861e-21 -7.55561e-25 2.27041e-27 1.58715e-21 -3.02224e-24 9.08162e-27 6.34861e-21 8.68388e-34 
7.13752e-21 -1.0112e-23 5.30285e-23 1.71441e-21 -4.20781e-23 2.20662e-22 7.13399e-21 3.93552e-34 
6.02978e-21 -1.06592e-23 3.37274e-23 9.72009e-22 -6.60799e-23 2.09087e-22 6.02579e-21 -3.94428e-34 
6.48088e-21 -2.11385e-23 5.09782e-23 1.17105e-21 -1.16856e-22 2.81813e-22 6.4737e-21 -1.4259e-34 
9.1482e-21 -6.46083e-23 2.88445e-23 1.69194e-21 -3.49027e-22 1.55824e-22 9.14021e-21 9.49853e-34 
7.62435e-21 -4.26232e-23 7.21207e-23 1.3712e-21 -2.3656e-22 4.00271e-22 7.61016e-21 -1.67015e-33 
9.85645e-21 -9.42024e-23 7.20295e-23 1.7912e-21 -5.17235e-22 3.95491e-22 9.83492e-21 -2.64366e-34 
6.2523e-21 -9.7375e-24 2.36837e-23 2.04472e-21 -2.97727e-23 7.24137e-23 6.25181e-21 -2.60255e-34 
6.98797e-21 -2.026e-23 1.30296e-23 1.15193e-21 -1.22877e-22 7.90245e-23 6.98644e-21 3.75452e-34 
9.5254e-21 -1.30935e-23 4.52296e-23 1.14133e-21 -1.09183e-22 3.77159e-22 9.5173e-21 -2.66709e-33 
6.67105e-21 -1.15753e-23 1.88266e-23 1.08945e-21 -7.08648e-23 1.15257e-22 6.66968e-21 2.07915e-33 
5.12022e-21 -1.624e-24 0 9.60042e-23 -8.6601e-23 0 5.11949e-21 -5.04337e-34 
6.35922e-21 -2.05511e-23 -3.33477e-23 1.1635e-21 -1.1226e-22 -1.82162e-22 6.35562e-21 -9.46368e-34 
6.11761e-21 -2.2418e-23 0 2.1794e-21 -6.29245e-23 0 6.11729e-21 1.47212e-34 
7.29224e-21 -9.29473e-25 -2.34007e-23 1.7567e-21 -3.858e-24 -9.71304e-23 7.29159e-21 1.05814e-33 
6.61092e-21 -9.36597e-24 -4.91161e-23 1.58792e-21 -3.89735e-23 -2.04381e-22 6.60764e-21 -1.40784e-33 
1.08712e-20 -1.04023e-22 -8.95635e-23 1.96732e-21 -5.73429e-22 -4.9372e-22 1.08449e-20 -1.04271e-34 
8.3159e-21 -5.88064e-23 -3.03861e-23 1.53524e-21 -3.1824e-22 -1.64439e-22 8.30818e-21 -1.00735e-33 
1.03545e-20 -8.9595e-23 -1.13505e-22 1.85184e-21 -4.99448e-22 -6.32733e-22 1.03231e-20 2.91888e-33 
7.62286e-21 -3.81224e-23 -4.80708e-23 1.39038e-21 -2.08806e-22 -2.63295e-22 7.61544e-21 -1.59174e-33 
7.5207e-21 -1.46391e-23 -4.20669e-23 1.21235e-21 -9.07512e-23 -2.60783e-22 7.51563e-21 1.50307e-33 
5.95035e-21 -1.03074e-23 -1.10949e-23 9.80885e-22 -6.25204e-23 -6.72972e-23 5.94964e-21 -3.38983e-34 
7.51426e-21 -7.02391e-23 0 2.67695e-21 -1.97095e-22 0 7.51168e-21 2.7347e-33 
6.64071e-21 -2.2539e-24 0 4.73151e-21 -3.16337e-24 0 6.64071e-21 5.62333e-34 
6.77435e-21 -1.1156e-23 -3.97922e-23 1.64769e-21 -4.58527e-23 -1.63551e-22 6.77222e-21 -1.8376e-34 
1.21594e-20 -1.44682e-22 0 2.2229e-21 -7.89754e-22 0 1.21338e-20 -9.1048e-34 
6.7777e-21 -9.18624e-24 -4.82911e-21 0 -1.28929e-23 -6.77769e-21 0 -2.41344e-34 
1.3777e-20 -1.68897e-22 -2.53818e-21 5.6751e-23 -9.14509e-22 -1.37432e-20 3.07284e-22 8.28664e-34 
7.35484e-21 -5.27158e-23 -1.36026e-21 2.319e-23 -2.84775e-22 -7.34826e-21 1.25274e-22 -1.46307e-34 
1.7063e-20 -2.10128e-22 -3.08781e-21 1.40575e-22 -1.15728e-21 -1.70061e-20 7.74215e-22 -9.30483e-34 
5.51903e-21 -6.56831e-25 -1.37976e-21 1.97373e-27 -2.62732e-24 -5.51903e-21 7.89491e-27 9.28573e-34 
6.34812e-21 -8.99365e-24 -1.5248e-21 4.71636e-23 -3.74243e-23 -6.34498e-21 1.96257e-22 4.82996e-34 
6.81378e-21 -1.20452e-23 -1.09839e-21 3.81127e-23 -7.46717e-23 -6.80927e-21 2.36273e-22 -7.2223e-34 
7.36444e-21 -2.40203e-23 -1.3307e-21 5.79282e-23 -1.32787e-22 -7.35627e-21 3.20233e-22 -1.61602e-34 
8.79279e-21 -6.20982e-23 -1.62621e-21 2.77239e-23 -3.35467e-22 -8.78511e-21 1.4977e-22 9.80044e-34 
1.01463e-20 -5.6722e-23 -1.82476e-21 9.59766e-23 -3.14808e-22 -1.01274e-20 5.32672e-22 -3.27349e-33 
1.0257e-20 -9.8031e-23 -1.864e-21 7.4957e-23 -5.38257e-22 -1.02346e-20 4.11565e-22 -4.72083e-36 
5.56548e-21 -8.66782e-24 -1.82011e-21 2.1082e-23 -2.65022e-23 -5.56504e-21 6.44589e-23 -1.70874e-34 
6.01221e-21 -1.7431e-23 -9.91082e-22 1.12103e-23 -1.05719e-22 -6.01089e-21 6.799e-23 6.25753e-34 
9.62949e-21 -1.32365e-23 -1.1538e-21 4.57239e-23 -1.10376e-22 -9.62131e-21 3.81281e-22 -2.69218e-33 
5.24059e-21 -9.09325e-24 -8.55842e-22 1.47896e-23 -5.56693e-23 -5.23951e-21 9.05429e-23 4.89522e-34 
2.44727e-21 -7.76211e-25 -4.58863e-23 0 -4.13919e-23 -2.44692e-21 0 7.33582e-34 
6.60441e-21 -2.13434e-23 -1.20836e-21 -3.46335e-23 -1.16589e-22 -6.60067e-21 -1.89186e-22 -1.14597e-33 
5.74035e-21 -2.10355e-23 -2.045e-21 0 -5.9044e-23 -5.74005e-21 0 4.51291e-34 
7.89645e-21 -1.00649e-24 -1.90225e-21 -2.53397e-23 -4.17766e-24 -7.89575e-21 -1.05178e-22 1.02959e-33 
6.87947e-21 -9.74644e-24 -1.65243e-21 -5.11113e-23 -4.05567e-23 -6.87606e-21 -2.12684e-22 -1.34881e-33 
1.28132e-20 -1.22606e-22 -2.31875e-21 -1.05563e-22 -6.75866e-22 -1.27822e-20 -5.81917e-22 5.16617e-34 
7.67178e-21 -5.42515e-23 -1.41632e-21 -2.80325e-23 -2.93591e-22 -7.66466e-21 -1.51702e-22 2.04262e-33 
1.05072e-20 -9.09158e-23 -1.87914e-21 -1.15178e-22 -5.06811e-22 -1.04753e-20 -6.42061e-22 9.29824e-34 
9.36227e-21 -4.68213e-23 -1.70764e-21 -5.90398e-23 -2.56452e-22 -9.35317e-21 -3.23375e-22 -1.45517e-33 
7.37578e-21 -1.4357e-23 -1.18899e-21 -4.12563e-23 -8.90024e-23 -7.37081e-21 -2.55757e-22 1.76158e-33 
6.02775e-21 -1.04415e-23 -9.93644e-22 -1.12392e-23 -6.33337e-23 -6.02703e-21 -6.81725e-23 -6.23208e-34 
7.25948e-21 -6.78576e-23 -2.58619e-21 0 -1.90412e-22 -7.25699e-21 0 2.07244e-33 
6.58933e-21 -2.23646e-24 -4.6949e-21 0 -3.1389e-24 -6.58933e-21 0 5.71383e-34 
6.11927e-21 -1.00773e-23 -1.48836e-21 -3.59443e-23 -4.14188e-23 -6.11735e-21 -1.47735e-22 5.47746e-35 
1.29479e-20 -1.54064e-22 -2.36704e-21 0 -8.40966e-22 -1.29206e-20 0 -9.87918e-34 
5.14546e-20 0 -4.29817e-20 -4.29817e-20 0 -3.63839e-20 -3.63839e-20 2.54854e-32 
0 0 0 0 0 0 0 0 
0 0 0 0 0 0 0 0 
0 0 0 0 0 0 0 0 
0 0 0 0 0 0 0 0 
0 0 0 0 0 0 0 0 
0 0 0 0 0 0 0 0 
0 0 0 0 0 0 0 0 
0 0 0 0 0 0 0 0 
0 0 0 0 0 0 0 0 
0 0 0 0 0 0 0 0 
0 0 0 0 0 0 0 0 
0 0 0 0 0 0 0 0 
0 0 0 0 0 0 0 0 
0 0 0 0 0 0 0 0 
0 0 0 0 0 0 0 0 
0 0 0 0 0 0 0 0 
0 0 0 0 0 0 0 0 
0 0 0 0 0 0 0 0 
0 0 0 0 0 0 0 0 
0 0 0 0 0 0 0 0 
0 0 0 0 0 0 0 0 
0 0 0 0 0 0 0 0 
0 0 0 0 0 0 0 0 
0 0 0 0 0 0 0 0 
0 0 0 0 0 0 0 0 
0 0 0 0 0 0 0 0 
0 0 0 0 0 0 0 0 
0 0 0 0 0 0 0 0 
0 0 0 0 0 0 0 0 
0 0 0 0 0 0 0 0 
0 0 0 0 0 0 0 0 
0 0 0 0 0 0 0 0 
0 0 0 0 0 0 0 0 
0 0 0 0 0 0 0 0 
0 0 0 0 0 0 0 0 
0 0 0 0 0 0 0 0 
0 0 0 0 0 0 0 0 
0 0 0 0 0 0 0 0 
0 0 0 0 0 0 0 0 
0 0 0 0 0 0 0 0 
0 0 0 0 0 0 0 0 
0 0 0 0 0 0 0 0 
0 0 0 0 0 0 0 0 
0 0 0 0 0 0 0 0 
0 0 0 0 0 0 0 0 
0 0 0 0 0 0 0 0 
5.24629e-20 0 4.3824e-20 4.3824e-20 0 3.70969e-20 3.70969e-20 2.6564e-32 
5.63639e-20 -2.30645e-21 -3.49531e-22 -1.30162e-20 -9.83096e-21 -1.48983e-21 -5.54799e-20 -2.91549e-32 
6.12383e-20 -3.71945e-21 -1.35819e-21 -2.06257e-20 -1.08451e-20 -3.9602e-21 -6.01401e-20 -1.81166e-32 
4.7557e-20 -1.74032e-21 -3.06054e-22 -9.73319e-21 -8.36656e-21 -1.47135e-21 -4.67921e-20 -1.65957e-33 
9.78816e-20 -2.94005e-21 -2.34595e-21 -1.16232e-20 -2.35561e-20 -1.87961e-20 -9.31269e-20 -8.70395e-33 
1.06752e-19 -1.76968e-21 -1.04642e-21 -7.11641e-21 -2.55036e-20 -1.50805e-20 -1.02558e-19 -5.929e-33 
1.10821e-19 -1.94869e-21 -7.71556e-22 -8.01007e-21 -2.60825e-20 -1.0327e-20 -1.07212e-19 1.16403e-32 
6.40121e-20 -1.04831e-21 -3.83534e-22 -4.72759e-21 -1.38144e-20 -5.05412e-21 -6.2299e-20 6.76407e-33 
4.79483e-20 -1.50576e-21 -4.21487e-22 -8.27116e-21 -8.57701e-21 -2.40085e-21 -4.71138e-20 4.40774e-35 
5.06567e-20 -1.76451e-21 -4.7237e-22 -9.50378e-21 -9.23607e-21 -2.47255e-21 -4.97462e-20 -6.39964e-33 
5.27814e-20 -1.6965e-21 -7.48298e-22 -9.01859e-21 -9.72541e-21 -4.2897e-21 -5.17001e-20 1.7251e-33 
5.77279e-20 -1.92479e-21 -9.71922e-22 -9.82649e-21 -1.10448e-20 -5.57708e-21 -5.63863e-20 -3.62623e-34 
1.59949e-19 -3.70391e-21 -3.26513e-21 -1.84057e-20 -3.10884e-20 -2.74055e-20 -1.54486e-19 4.91052e-32 
5.58479e-20 -2.09608e-21 -1.21155e-21 -1.04758e-20 -1.08875e-20 -6.29305e-21 -5.44137e-20 -2.88276e-33 
5.76291e-20 -1.25521e-21 -4.38157e-22 -6.18065e-21 -1.1442e-20 -3.99407e-21 -5.63404e-20 1.32376e-32 
5.97703e-20 -1.65377e-21 -8.92194e-22 -7.79254e-21 -1.23313e-20 -6.65262e-21 -5.81049e-20 -4.58386e-34 
8.61893e-20 -1.44852e-21 -6.86774e-22 -5.9149e-21 -2.03723e-20 -9.65892e-21 -8.31882e-20 -2.11493e-32 
6.60525e-20 -1.02805e-21 -4.52033e-22 -4.61307e-21 -1.43025e-20 -6.28878e-21 -6.4178e-20 -1.72606e-32 