ITEM: TIMESTEP
50
ITEM: NUMBER OF SURFS
6916
ITEM: BOX BOUNDS oo rr rr
-20 20
-20 20
-20 20
ITEM: SURFS f_save[1] f_save[2] f_save[3] f_save[4] f_save[5] f_save[6] f_save[7] f_save[8] 
0 0 0 0 0 0 0 0 
0 0 0 0 0 0 0 0 
0 0 0 0 0 0 0 0 
1.16762e-18 -2.84608e-20 0 0 -1.16762e-18 0 0 1.09107e-30 
1.16455e-18 -1.45569e-21 0 0 -1.16455e-18 0 0 0 
1.19739e-18 -1.49675e-21 0 0 -1.19739e-18 0 0 0 
1.16276e-18 -1.45345e-21 0 0 -1.16276e-18 0 0 0 
1.10182e-18 -2.68568e-20 0 0 -1.10182e-18 0 0 1.00968e-30 
1.06122e-18 -2.5204e-20 0 0 -1.06122e-18 0 0 0 
1.04925e-18 -2.49197e-20 0 0 -1.04925e-18 0 0 0 
1.16747e-18 -2.77276e-20 0 0 -1.16747e-18 0 0 0 
1.16554e-18 -2.76816e-20 0 0 -1.16554e-18 0 0 0 
1.23124e-18 -3.00116e-20 0 0 -1.23124e-18 0 0 0 
1.17642e-18 -2.794e-20 0 0 -1.17642e-18 0 0 0 
1.05877e-18 -2.51457e-20 0 0 -1.05877e-18 0 0 0 
1.21412e-18 -2.95943e-20 0 0 -1.21412e-18 0 0 0 
1.00099e-18 -2.43992e-20 0 0 -1.00099e-18 0 0 9.31361e-31 
1.27462e-18 -3.02723e-20 0 0 -1.27462e-18 0 0 1.17441e-30 
1.07103e-18 -2.5437e-20 0 0 -1.07103e-18 0 0 0 
1.10524e-18 -2.69403e-20 0 0 -1.10524e-18 0 0 1.02845e-30 
1.05376e-18 -2.50267e-20 0 0 -1.05376e-18 0 0 0 
1.0773e-18 -2.5586e-20 0 0 -1.0773e-18 0 0 0 
1.12858e-18 -2.75093e-20 0 0 -1.12858e-18 0 0 0 
1.09182e-18 -2.59309e-20 0 0 -1.09182e-18 0 0 0 
1.18227e-18 -2.8079e-20 0 0 -1.18227e-18 0 0 0 
1.21103e-18 -2.87619e-20 0 0 -1.21103e-18 0 0 0 
9.49235e-19 -1.18655e-21 0 0 -9.49235e-19 0 0 0 
1.0807e-18 -2.56666e-20 0 0 -1.0807e-18 0 0 0 
1.15586e-18 -2.74518e-20 0 0 -1.15586e-18 0 0 0 
9.19106e-19 -1.14888e-21 0 0 -9.19106e-19 0 0 0 
1.05543e-18 -2.50664e-20 0 0 -1.05543e-18 0 0 0 
1.24282e-18 -2.9517e-20 0 0 -1.24282e-18 0 0 0 
1.87244e-18 -2.34056e-21 0 0 -1.87244e-18 0 0 0 
1.10184e-18 -2.68573e-20 0 0 -1.10184e-18 0 0 1.01482e-30 
1.17578e-18 -2.7925e-20 0 0 -1.17578e-18 0 0 0 
1.34238e-18 -1.67799e-21 0 0 -1.34238e-18 0 0 0 
1.14983e-18 -2.80271e-20 0 0 -1.14983e-18 0 0 1.06252e-30 
1.11235e-18 -2.64183e-20 0 0 -1.11235e-18 0 0 0 
1.36379e-18 -1.70474e-21 0 0 -1.36379e-18 0 0 0 
9.88227e-19 -2.34705e-20 0 0 -9.88227e-19 0 0 0 
1.15348e-18 -2.81162e-20 0 0 -1.15348e-18 0 0 0 
1.40777e-18 -1.75972e-21 0 0 -1.40777e-18 0 0 0 
1.05908e-18 -2.51532e-20 0 0 -1.05908e-18 0 0 0 
1.23111e-18 -3.00083e-20 0 0 -1.23111e-18 0 0 0 
1.06391e-18 -1.32989e-21 0 0 -1.06391e-18 0 0 0 
1.11412e-18 -2.64605e-20 0 0 -1.11412e-18 0 0 0 
1.11031e-18 -2.637e-20 0 0 -1.11031e-18 0 0 0 
1.29955e-18 -1.62444e-21 0 0 -1.29955e-18 0 0 0 
8.6564e-19 -1.08206e-21 0 0 -8.6564e-19 0 0 0 
9.41372e-19 -1.17672e-21 0 0 -9.41372e-19 0 0 0 
1.16269e-18 -2.76139e-20 0 0 -1.16269e-18 0 0 1.08156e-30 
1.09258e-18 -2.59489e-20 0 0 -1.09258e-18 0 0 0 
1.14161e-18 -2.71132e-20 0 0 -1.14161e-18 0 0 1.04253e-30 
1.70257e-18 -2.12821e-21 0 0 -1.70257e-18 0 0 0 
1.11358e-18 -2.64475e-20 0 0 -1.11358e-18 0 0 0 
1.05871e-18 -2.51445e-20 0 0 -1.05871e-18 0 0 0 
1.18006e-18 -2.80265e-20 0 0 -1.18006e-18 0 0 0 
1.31536e-18 -1.6442e-21 0 0 -1.31536e-18 0 0 0 
1.24878e-18 -2.96584e-20 0 0 -1.24878e-18 0 0 0 
1.07674e-18 -2.55727e-20 0 0 -1.07674e-18 0 0 0 
1.13281e-18 -2.69042e-20 0 0 -1.13281e-18 0 0 0 
1.07828e-18 -1.34786e-21 0 0 -1.07828e-18 0 0 0 
9.56253e-19 -2.27111e-20 0 0 -9.56253e-19 0 0 0 
1.06337e-18 -2.59197e-20 0 0 -1.06337e-18 0 0 9.74917e-31 
1.41233e-18 -1.76542e-21 0 0 -1.41233e-18 0 0 0 
1.03518e-18 -2.45856e-20 0 0 -1.03518e-18 0 0 0 
9.97789e-19 -2.36975e-20 0 0 -9.97789e-19 0 0 0 
1.48945e-18 -1.86182e-21 0 0 -1.48945e-18 0 0 0 
1.06976e-18 -2.54068e-20 0 0 -1.06976e-18 0 0 0 
1.14742e-18 -2.72513e-20 0 0 -1.14742e-18 0 0 0 
1.295e-18 -1.61875e-21 0 0 -1.295e-18 0 0 0 
1.12369e-18 -2.66878e-20 0 0 -1.12369e-18 0 0 0 
1.13107e-18 -2.68628e-20 0 0 -1.13107e-18 0 0 0 
7.82344e-19 -9.77931e-22 0 0 -7.82344e-19 0 0 0 
1.67806e-18 -2.09759e-21 0 0 -1.67806e-18 0 0 0 
1.2682e-18 -3.01198e-20 0 0 -1.2682e-18 0 0 0 
1.1224e-18 -2.6657e-20 0 0 -1.1224e-18 0 0 0 
1.39863e-18 -1.7483e-21 0 0 -1.39863e-18 0 0 0 
1.12851e-18 -2.68021e-20 0 0 -1.12851e-18 0 0 0 
1.17659e-18 -2.7944e-20 0 0 -1.17659e-18 0 0 0 
1.07328e-18 -2.54905e-20 0 0 -1.07328e-18 0 0 0 
1.14016e-18 -2.70787e-20 0 0 -1.14016e-18 0 0 0 
1.07445e-18 -2.55183e-20 0 0 -1.07445e-18 0 0 0 
1.09203e-18 -2.66184e-20 0 0 -1.09203e-18 0 0 0 
1.14739e-18 -2.86849e-20 0 0 -1.14739e-18 0 0 0 
1.08058e-18 -2.70145e-20 0 0 -1.08058e-18 0 0 0 
1.00959e-18 -2.52397e-20 0 0 -1.00959e-18 0 0 0 
1.12214e-18 -2.80535e-20 0 0 -1.12214e-18 0 0 0 
1.11058e-18 -9.55102e-19 0 0 -1.11058e-18 0 0 1.0222e-30 
1.10725e-18 -5.25945e-19 0 0 -1.10725e-18 0 0 1.02056e-30 
1.10831e-18 -5.26448e-19 0 0 -1.10831e-18 0 0 0 
1.08547e-18 -5.15597e-19 0 0 -1.08547e-18 0 0 0 
1.1014e-18 -5.36933e-19 0 0 -1.1014e-18 0 0 0 
1.11412e-18 -9.58146e-19 0 0 -1.11412e-18 0 0 1.02922e-30 
1.11598e-18 -5.3009e-19 0 0 -1.11598e-18 0 0 0 
1.10335e-18 -5.2409e-19 0 0 -1.10335e-18 0 0 0 
1.10824e-18 -5.26412e-19 0 0 -1.10824e-18 0 0 0 
1.1012e-18 -5.36837e-19 0 0 -1.1012e-18 0 0 0 
1.17017e-18 -2.92542e-20 0 0 -1.17017e-18 0 0 1.08025e-30 
1.11035e-18 -2.77586e-20 0 0 -1.11035e-18 0 0 0 
1.2691e-18 -3.17276e-20 0 0 -1.2691e-18 0 0 1.16056e-30 
1.72714e-21 0 0 -1.01038e-20 0 0 -1.72714e-21 0 
0 0 0 0 0 0 0 0 
0 0 0 0 0 0 0 0 
0 0 0 0 0 0 0 0 
0 0 0 0 0 0 0 0 
0 0 0 0 0 0 0 0 
0 0 0 0 0 0 0 0 
0 0 0 0 0 0 0 0 
0 0 0 0 0 0 0 0 
0 0 0 0 0 0 0 0 
0 0 0 0 0 0 0 0 
0 0 0 0 0 0 0 0 
0 0 0 0 0 0 0 0 
0 0 0 0 0 0 0 0 
0 0 0 0 0 0 0 0 
0 0 0 0 0 0 0 0 
0 0 0 0 0 0 0 0 
0 0 0 0 0 0 0 0 
0 0 0 0 0 0 0 0 
0 0 0 0 0 0 0 0 
0 0 0 0 0 0 0 0 
0 0 0 0 0 0 0 0 
0 0 0 0 0 0 0 0 
0 0 0 0 0 0 0 0 
0 0 0 0 0 0 0 0 
0 0 0 0 0 0 0 0 
0 0 0 0 0 0 0 0 
0 0 0 0 0 0 0 0 
0 0 0 0 0 0 0 0 
0 0 0 0 0 0 0 0 
0 0 0 0 0 0 0 0 
0 0 0 0 0 0 0 0 
0 0 0 0 0 0 0 0 
0 0 0 0 0 0 0 0 
0 0 0 0 0 0 0 0 
0 0 0 0 0 0 0 0 
0 0 0 0 0 0 0 0 
0 0 0 0 0 0 0 0 
0 0 0 0 0 0 0 0 
0 0 0 0 0 0 0 0 
0 0 0 0 0 0 0 0 
0 0 0 0 0 0 0 0 
0 0 0 0 0 0 0 0 
0 0 0 0 0 0 0 0 
0 0 0 0 0 0 0 0 
0 0 0 0 0 0 0 0 
0 0 0 0 0 0 0 0 
0 0 0 0 0 0 0 0 
0 0 0 0 0 0 0 0 
0 0 0 0 0 0 0 0 
0 0 0 0 0 0 0 0 
0 0 0 0 0 0 0 0 
0 0 0 0 0 0 0 0 
0 0 0 0 0 0 0 0 
0 0 0 0 0 0 0 0 
0 0 0 0 0 0 0 0 
0 0 0 0 0 0 0 0 
0 0 0 0 0 0 0 0 
0 0 0 0 0 0 0 0 
0 0 0 0 0 0 0 0 
0 0 0 0 0 0 0 0 
0 0 0 0 0 0 0 0 
0 0 0 0 0 0 0 0 
0 0 0 0 0 0 0 0 
0 0 0 0 0 0 0 0 
0 0 0 0 0 0 0 0 
0 0 0 0 0 0 0 0 
0 0 0 0 0 0 0 0 
0 0 0 0 0 0 0 0 
0 0 0 0 0 0 0 0 
0 0 0 0 0 0 0 0 
0 0 0 0 0 0 0 0 
0 0 0 0 0 0 0 0 
0 0 0 0 0 0 0 0 
0 0 0 0 0 0 0 0 
0 0 0 0 0 0 0 0 
0 0 0 0 0 0 0 0 
0 0 0 0 0 0 0 0 
0 0 0 0 0 0 0 0 
0 0 0 0 0 0 0 0 
0 0 0 0 0 0 0 0 
0 0 0 0 0 0 0 0 
0 0 0 0 0 0 0 0 
1.49864e-19 -1.57356e-19 -1.9272e-19 -1.9272e-19 -7.49318e-20 -9.17723e-20 -9.17723e-20 -4.84145e-32 
9.73126e-22 0 0 -1.43905e-19 0 0 -9.73126e-22 0 
1.56217e-22 0 3.16473e-20 -3.16473e-20 0 1.10462e-22 -1.10462e-22 -8.14235e-36 
1.47708e-19 -1.55092e-19 1.89948e-19 1.89948e-19 -7.38538e-20 9.04521e-20 9.04521e-20 -4.89224e-32 
9.63803e-22 0 0 1.42526e-19 0 0 9.63803e-22 0 
9.71159e-22 0 -8.8586e-20 8.8586e-20 0 -6.86713e-22 6.86713e-22 5.31497e-35 
9.75657e-22 0 -5.70759e-21 0 0 -9.75657e-22 0 0 
9.58459e-22 0 5.60699e-21 0 0 9.58459e-22 0 0 
9.98003e-22 0 0 -5.68861e-21 0 0 -9.98003e-22 0 
9.50842e-22 0 0 5.4198e-21 0 0 9.50842e-22 0 
9.37478e-22 0 0 -5.34363e-21 0 0 -9.37478e-22 0 
9.66201e-22 0 0 5.50735e-21 0 0 9.66201e-22 0 
1.04319e-21 0 0 5.94621e-21 0 0 1.04319e-21 0 
9.73535e-22 0 0 -5.54915e-21 0 0 -9.73535e-22 0 
9.85807e-22 0 0 -5.6191e-21 0 0 -9.85807e-22 0 
9.06791e-22 0 0 5.16871e-21 0 0 9.06791e-22 0 
9.80984e-22 0 0 -5.59161e-21 0 0 -9.80984e-22 0 
9.07987e-22 0 0 5.17552e-21 0 0 9.07987e-22 0 
9.86987e-22 0 -5.62583e-21 0 0 -9.86987e-22 0 0 
1.01317e-21 0 5.77507e-21 0 0 1.01317e-21 0 0 
9.43352e-22 0 0 -5.37711e-21 0 0 -9.43352e-22 0 
9.40083e-22 0 0 5.35847e-21 0 0 9.40083e-22 0 
1.0064e-21 0 -5.7365e-21 0 0 -1.0064e-21 0 0 
1.08627e-21 0 6.19172e-21 0 0 1.08627e-21 0 0 
9.37402e-22 0 -5.34319e-21 0 0 -9.37402e-22 0 0 
9.75253e-22 0 5.55894e-21 0 0 9.75253e-22 0 0 
9.77049e-22 0 5.71573e-21 0 0 9.77049e-22 0 0 
9.97398e-22 0 -5.83477e-21 0 0 -9.97398e-22 0 0 
9.28508e-22 0 5.43177e-21 0 0 9.28508e-22 0 0 
9.34168e-22 0 -5.46488e-21 0 0 -9.34168e-22 0 0 
8.41604e-22 0 -4.79714e-21 0 0 -8.41604e-22 0 0 
9.8185e-22 0 5.59655e-21 0 0 9.8185e-22 0 0 
9.61426e-22 0 5.62434e-21 0 0 9.61426e-22 0 0 
1.03567e-21 0 -3.02935e-21 0 0 -1.03567e-21 0 0 
1.007e-21 0 0 2.94547e-21 0 0 1.007e-21 0 
9.37491e-22 0 0 -5.3437e-21 0 0 -9.37491e-22 0 
1.80494e-21 0 0 1.02881e-20 0 0 1.80494e-21 0 
1.02028e-21 0 0 5.96864e-21 0 0 1.02028e-21 0 
9.13282e-22 0 0 -5.3427e-21 0 0 -9.13282e-22 0 
9.09595e-22 0 -5.18469e-21 0 0 -9.09595e-22 0 0 
9.81804e-22 0 5.59628e-21 0 0 9.81804e-22 0 0 
1.03966e-21 0 -5.92606e-21 0 0 -1.03966e-21 0 0 
9.64615e-22 0 5.49831e-21 0 0 9.64615e-22 0 0 
9.70903e-22 0 0 5.53415e-21 0 0 9.70903e-22 0 
9.78554e-22 0 0 -5.57776e-21 0 0 -9.78554e-22 0 
9.00836e-22 0 -5.13476e-21 0 0 -9.00836e-22 0 0 
9.65326e-22 0 5.50236e-21 0 0 9.65326e-22 0 0 
1.00713e-21 0 0 5.74062e-21 0 0 1.00713e-21 0 
9.31167e-22 0 0 -5.30765e-21 0 0 -9.31167e-22 0 
8.94374e-22 0 -5.09793e-21 0 0 -8.94374e-22 0 0 
9.55128e-22 0 5.44423e-21 0 0 9.55128e-22 0 0 
9.43344e-22 0 0 5.37706e-21 0 0 9.43344e-22 0 
1.84313e-21 0 0 -1.05059e-20 0 0 -1.84313e-21 0 
1.05507e-21 0 6.01388e-21 0 0 1.05507e-21 0 0 
1.02148e-21 0 -5.82244e-21 0 0 -1.02148e-21 0 0 
9.7715e-22 0 5.56975e-21 0 0 9.7715e-22 0 0 
9.9496e-22 0 -5.67127e-21 0 0 -9.9496e-22 0 0 
9.45172e-22 0 0 -5.38748e-21 0 0 -9.45172e-22 0 
1.02739e-21 0 0 5.85613e-21 0 0 1.02739e-21 0 
9.19984e-22 0 0 5.24391e-21 0 0 9.19984e-22 0 
1.81312e-21 0 0 -1.03348e-20 0 0 -1.81312e-21 0 
8.90736e-22 0 0 5.07719e-21 0 0 8.90736e-22 0 
1.79581e-21 0 0 -1.02361e-20 0 0 -1.79581e-21 0 
9.63313e-22 0 -5.49088e-21 0 0 -9.63313e-22 0 0 
1.85603e-21 0 1.05794e-20 0 0 1.85603e-21 0 0 
9.50969e-22 0 -5.42052e-21 0 0 -9.50969e-22 0 0 
9.72139e-22 0 5.54119e-21 0 0 9.72139e-22 0 0 
1.78685e-21 0 1.04531e-20 0 0 1.78685e-21 0 0 
9.65273e-22 0 0 -5.64684e-21 0 0 -9.65273e-22 0 
9.93898e-22 0 -5.8143e-21 0 0 -9.93898e-22 0 0 
9.87368e-22 0 5.7761e-21 0 0 9.87368e-22 0 0 
8.98212e-22 0 5.25454e-21 0 0 8.98212e-22 0 0 
9.44123e-22 0 -5.52312e-21 0 0 -9.44123e-22 0 0 
1.0093e-21 0 0 -5.9044e-21 0 0 -1.0093e-21 0 
9.79684e-22 0 0 5.73115e-21 0 0 9.79684e-22 0 
9.68201e-22 0 0 5.66397e-21 0 0 9.68201e-22 0 
8.55376e-22 0 0 -5.00395e-21 0 0 -8.55376e-22 0 
1.7945e-21 0 -1.02287e-20 0 0 -1.7945e-21 0 0 
9.32948e-22 0 5.3178e-21 0 0 9.32948e-22 0 0 
9.36024e-22 0 0 -5.47574e-21 0 0 -9.36024e-22 0 
1.04628e-21 0 0 6.12074e-21 0 0 1.04628e-21 0 
9.06411e-22 0 -2.65125e-21 0 0 -9.06411e-22 0 0 
1.80639e-21 0 -1.05674e-20 0 0 -1.80639e-21 0 0 
1.78732e-21 0 1.04558e-20 0 0 1.78732e-21 0 0 
1.8711e-21 0 -1.09459e-20 0 0 -1.8711e-21 0 0 
1.87796e-21 0 1.09861e-20 0 0 1.87796e-21 0 0 
1.77961e-21 0 -1.01438e-20 0 0 -1.77961e-21 0 0 
8.91311e-22 0 5.08047e-21 0 0 8.91311e-22 0 0 
1.80303e-21 0 0 -1.05477e-20 0 0 -1.80303e-21 0 
1.82443e-21 0 0 1.06729e-20 0 0 1.82443e-21 0 
9.8491e-22 0 5.61399e-21 0 0 9.8491e-22 0 0 
1.88714e-21 0 -1.07567e-20 0 0 -1.88714e-21 0 0 
1.7779e-21 0 0 1.0134e-20 0 0 1.7779e-21 0 
1.75829e-21 0 0 -1.00223e-20 0 0 -1.75829e-21 0 
1.84459e-21 0 0 1.07909e-20 0 0 1.84459e-21 0 
9.16538e-22 0 2.68087e-21 0 0 9.16538e-22 0 0 
9.52165e-22 0 -5.42734e-21 0 0 -9.52165e-22 0 0 
1.84973e-21 0 1.05435e-20 0 0 1.84973e-21 0 0 
1.79612e-21 0 1.02379e-20 0 0 1.79612e-21 0 0 
1.81835e-21 0 -1.03646e-20 0 0 -1.81835e-21 0 0 
1.79048e-21 0 1.02057e-20 0 0 1.79048e-21 0 0 
1.79808e-21 0 -1.02491e-20 0 0 -1.79808e-21 0 0 
1.74925e-21 0 0 -9.97071e-21 0 0 -1.74925e-21 0 
1.83733e-21 0 0 1.04728e-20 0 0 1.83733e-21 0 
9.87876e-22 0 5.63089e-21 0 0 9.87876e-22 0 0 
1.79095e-21 0 -1.02084e-20 0 0 -1.79095e-21 0 0 
1.79952e-21 0 0 -1.02573e-20 0 0 -1.79952e-21 0 
1.76961e-21 0 0 1.00868e-20 0 0 1.76961e-21 0 
1.7537e-21 0 9.99607e-21 0 0 1.7537e-21 0 0 
1.00018e-21 0 -5.70105e-21 0 0 -1.00018e-21 0 0 
1.79336e-21 0 -1.02222e-20 0 0 -1.79336e-21 0 0 
1.68741e-21 0 9.61826e-21 0 0 1.68741e-21 0 0 
1.82295e-21 0 0 -1.03908e-20 0 0 -1.82295e-21 0 
1.76531e-21 0 0 1.00622e-20 0 0 1.76531e-21 0 
1.81667e-21 0 0 -1.0355e-20 0 0 -1.81667e-21 0 
1.8347e-21 0 0 1.04578e-20 0 0 1.8347e-21 0 
1.75934e-21 0 0 1.00283e-20 0 0 1.75934e-21 0 
1.7649e-21 0 0 -1.00599e-20 0 0 -1.7649e-21 0 
1.93681e-21 0 -1.10398e-20 0 0 -1.93681e-21 0 0 
1.84354e-21 0 1.05082e-20 0 0 1.84354e-21 0 0 
1.8094e-21 0 0 1.03136e-20 0 0 1.8094e-21 0 
1.78158e-21 0 0 -1.0155e-20 0 0 -1.78158e-21 0 
1.80796e-21 0 0 -1.03054e-20 0 0 -1.80796e-21 0 
9.82978e-22 0 0 5.60297e-21 0 0 9.82978e-22 0 
1.91447e-21 0 1.09125e-20 0 0 1.91447e-21 0 0 
1.84926e-21 0 -1.05408e-20 0 0 -1.84926e-21 0 0 
1.90463e-21 0 -1.08564e-20 0 0 -1.90463e-21 0 0 
1.83781e-21 0 1.04755e-20 0 0 1.83781e-21 0 0 
1.84939e-21 0 0 1.05415e-20 0 0 1.84939e-21 0 
1.89787e-21 0 0 -1.08178e-20 0 0 -1.89787e-21 0 
1.86482e-21 0 1.06295e-20 0 0 1.86482e-21 0 0 
1.86839e-21 0 -1.06498e-20 0 0 -1.86839e-21 0 0 
1.78139e-21 0 0 1.01539e-20 0 0 1.78139e-21 0 
1.79433e-21 0 0 -1.02277e-20 0 0 -1.79433e-21 0 
8.13235e-23 -1.10223e-25 0 -5.7943e-23 -1.54698e-25 0 -8.13233e-23 -2.02729e-35 
4.00815e-22 -4.91372e-24 -1.65106e-24 -7.38432e-23 -2.66058e-23 -8.9398e-24 -3.99831e-22 -2.60703e-35 
1.98986e-22 -1.42623e-24 -6.27407e-25 -3.6802e-23 -7.70461e-24 -3.3893e-24 -1.98807e-22 1.0404e-34 
1.02557e-22 -1.26298e-24 -8.44928e-25 -1.85593e-23 -6.95584e-24 -4.65343e-24 -1.02215e-22 5.30352e-35 
9.11065e-23 -1.08428e-26 -3.25817e-29 -2.27766e-23 -4.33711e-26 -1.30327e-28 -9.11065e-23 0 
0 0 0 0 0 0 0 0 
1.8239e-23 -3.22422e-26 -1.02019e-25 -2.94015e-24 -1.99879e-25 -6.32449e-25 -1.82269e-23 5.96972e-35 
2.032e-23 -6.62771e-26 -1.59836e-25 -3.67169e-24 -3.66387e-25 -8.83589e-25 -2.02975e-23 0 
2.92988e-22 -2.0692e-24 -9.238e-25 -5.41877e-23 -1.11782e-23 -4.99056e-24 -2.92733e-22 2.86117e-34 
0 0 0 0 0 0 0 0 
0 0 0 0 0 0 0 0 
4.29634e-23 -6.69124e-26 -1.62745e-25 -1.40506e-23 -2.04587e-25 -4.97599e-25 -4.296e-23 0 
1.11231e-22 -3.22489e-25 -2.07399e-25 -1.83358e-23 -1.95589e-24 -1.25787e-24 -1.11207e-22 0 
6.22127e-23 -8.55166e-26 -2.95406e-25 -7.45432e-24 -7.13103e-25 -2.46332e-24 -6.21598e-23 8.02994e-35 
0 0 0 0 0 0 0 0 
0 0 0 0 0 0 0 0 
8.65431e-23 -2.79681e-25 4.53831e-25 -1.58341e-23 -1.52776e-24 2.47906e-24 -8.64941e-23 -5.26021e-35 
2.09952e-22 -7.69369e-25 0 -7.47953e-23 -2.15952e-24 0 -2.09941e-22 5.40583e-35 
0 0 0 0 0 0 0 0 
0 0 0 0 0 0 0 0 
1.01408e-22 -9.70337e-25 8.35456e-25 -1.83513e-23 -5.349e-24 4.60546e-24 -1.01162e-22 0 
0 0 0 0 0 0 0 0 
0 0 0 0 0 0 0 0 
3.3817e-23 -1.69121e-25 2.13255e-25 -6.16809e-24 -9.26317e-25 1.16805e-24 -3.37841e-23 5.27439e-35 
0 0 0 0 0 0 0 0 
0 0 0 0 0 0 0 0 
3.64418e-22 -3.40638e-24 0 -1.29824e-22 -9.55847e-24 0 -3.64293e-22 8.10639e-35 
5.44624e-23 -1.84849e-26 0 -3.88044e-23 -2.59437e-26 0 -5.44624e-23 -2.70306e-35 
0 0 0 0 0 0 0 0 
5.27366e-22 -6.27501e-24 0 -9.64092e-23 -3.42524e-23 0 -5.26253e-22 -3.42114e-51 
1.64603e-22 -2.23097e-25 1.1728e-22 0 -3.13118e-25 1.64603e-22 0 6.75764e-36 
5.80754e-22 -7.11965e-24 1.06994e-22 -2.39227e-24 -3.855e-23 5.79328e-22 -1.29532e-23 -2.60703e-34 
1.8124e-22 -1.29904e-24 3.352e-23 -5.71455e-25 -7.01752e-24 1.81078e-22 -3.08705e-24 -1.82071e-34 
2.27634e-23 -2.80328e-25 4.1194e-24 -1.87538e-25 -1.5439e-24 2.26875e-23 -1.03287e-24 -2.65176e-35 
1.09262e-22 -1.30035e-26 2.73156e-23 -3.90747e-29 -5.20142e-26 1.09262e-22 -1.56299e-28 0 
4.1064e-23 -5.81771e-26 9.86345e-24 -3.05087e-25 -2.42086e-25 4.10437e-23 -1.26952e-24 6.01062e-35 
5.88911e-23 -1.04106e-25 9.49333e-24 -3.29406e-25 -6.45383e-25 5.88521e-23 -2.04209e-24 0 
0 0 0 0 0 0 0 0 
1.60461e-22 -1.13324e-24 2.9677e-23 -5.05939e-25 -6.122e-24 1.60321e-22 -2.73318e-24 0 
2.31134e-23 -1.29213e-25 4.15682e-24 -2.18636e-25 -7.17137e-25 2.30704e-23 -1.21343e-24 0 
1.46233e-22 -1.39761e-24 2.65748e-23 -1.06865e-24 -7.67383e-24 1.45914e-22 -5.86761e-24 2.11493e-34 
3.01837e-23 -4.70089e-26 9.87115e-24 -1.14336e-25 -1.43731e-25 3.01814e-23 -3.49586e-25 0 
7.30884e-23 -2.11903e-25 1.20483e-23 -1.36279e-25 -1.28519e-24 7.30724e-23 -8.26532e-25 1.16807e-34 
0 0 0 0 0 0 0 0 
0 0 0 0 0 0 0 0 
0 0 0 0 0 0 0 0 
1.9052e-23 -6.15702e-26 3.4858e-24 9.99084e-26 -3.36328e-25 1.90412e-23 5.45751e-25 0 
1.67126e-22 -6.12433e-25 5.95385e-23 0 -1.71902e-24 1.67117e-22 0 -9.46021e-35 
0 0 0 0 0 0 0 0 
0 0 0 0 0 0 0 0 
7.28972e-23 -6.97529e-25 1.31919e-23 6.00569e-25 -3.84514e-24 7.27204e-23 3.31065e-24 0 
1.53399e-22 -1.08477e-24 2.83197e-23 5.60517e-25 -5.87042e-24 1.53257e-22 3.03333e-24 1.30281e-34 
0 0 0 0 0 0 0 0 
0 0 0 0 0 0 0 0 
0 0 0 0 0 0 0 0 
1.88609e-23 -3.26715e-26 3.10912e-24 3.51677e-26 -1.98172e-25 1.88586e-23 2.13312e-25 0 
3.36173e-22 -3.14236e-24 1.19762e-22 0 -8.81762e-24 3.36057e-22 0 2.56702e-34 
1.01962e-22 -3.46065e-26 7.26478e-23 0 -4.85706e-26 1.01962e-22 0 0 
3.11393e-23 -5.12804e-26 7.57387e-24 1.82911e-25 -2.10769e-25 3.11295e-23 7.51786e-25 0 
8.11887e-22 -9.66046e-24 1.48423e-22 0 -5.2732e-23 8.10173e-22 0 -1.57691e-34 
1.13937e-22 -1.54426e-25 0 8.11802e-23 -2.16738e-25 0 1.13937e-22 -1.35153e-35 
3.08422e-22 -3.78105e-24 1.27047e-24 5.68215e-23 -2.04729e-23 6.87907e-24 3.07665e-22 -1.56422e-34 
2.04831e-22 -1.46812e-24 6.45836e-25 3.7883e-23 -7.93093e-24 3.48886e-24 2.04647e-22 0 
7.70252e-23 -9.48553e-25 6.34578e-25 1.39389e-23 -5.22414e-24 3.49493e-24 7.67683e-23 0 
7.46916e-24 -8.8892e-28 2.67114e-30 1.86729e-24 -3.55568e-27 1.06846e-29 7.46916e-24 3.85186e-35 
0 0 0 0 0 0 0 0 
0 0 0 0 0 0 0 0 
4.87056e-23 -1.58862e-25 3.83115e-25 8.80078e-24 -8.78203e-25 2.1179e-24 4.86516e-23 0 
1.67682e-22 -1.18424e-24 5.28705e-25 3.10124e-23 -6.39749e-24 2.85617e-24 1.67535e-22 2.34096e-34 
0 0 0 0 0 0 0 0 
4.73563e-23 -4.52605e-25 3.46073e-25 8.60602e-24 -2.48511e-24 1.90018e-24 4.72529e-23 -5.28733e-35 
3.47938e-23 -5.41887e-26 1.31799e-25 1.13788e-23 -1.65684e-25 4.02979e-25 3.4791e-23 1.47215e-35 
6.12619e-23 -1.77615e-25 1.14228e-25 1.00987e-23 -1.07723e-24 6.9279e-25 6.12486e-23 0 
0 0 0 0 0 0 0 0 
0 0 0 0 0 0 0 0 
0 0 0 0 0 0 0 0 
1.04157e-22 -3.36604e-25 -5.46198e-25 1.90568e-23 -1.8387e-24 -2.98361e-24 1.04098e-22 2.10408e-34 
1.37966e-22 -5.05579e-25 0 4.91506e-23 -1.41909e-24 0 1.37959e-22 2.70292e-35 
0 0 0 0 0 0 0 0 
1.19933e-23 -1.69914e-26 -8.91046e-26 2.88075e-24 -7.07044e-26 -3.70781e-25 1.19873e-23 0 
1.20769e-22 -1.15559e-24 -9.94962e-25 2.18549e-23 -6.37023e-24 -5.48474e-24 1.20476e-22 2.65418e-35 
7.47962e-23 -5.28926e-25 -2.73303e-25 1.38085e-23 -2.86237e-24 -1.47902e-24 7.47267e-23 5.21124e-35 
0 0 0 0 0 0 0 0 
1.52392e-23 -7.62125e-26 -9.61008e-26 2.77958e-24 -4.17434e-25 -5.26367e-25 1.52244e-23 0 
7.37408e-23 -1.43537e-25 -4.12468e-25 1.18871e-23 -8.8982e-25 -2.55698e-24 7.36911e-23 0 
0 0 0 0 0 0 0 0 
2.07198e-22 -1.93677e-24 0 7.38143e-23 -5.43469e-24 0 2.07127e-22 -2.70213e-35 
1.49521e-22 -5.07484e-26 0 1.06534e-22 -7.12258e-26 0 1.49521e-22 -4.73035e-35 
2.34977e-23 -3.86961e-26 -1.38024e-25 5.71523e-24 -1.59046e-25 -5.67296e-25 2.34903e-23 0 
6.36811e-22 -7.57727e-24 0 1.16417e-22 -4.13608e-23 0 6.35466e-22 1.31409e-34 
1.39391e-22 -1.88925e-25 -9.93161e-23 0 -2.65158e-25 -1.39391e-22 0 2.02729e-35 
3.29729e-22 -4.04226e-24 -6.0747e-23 1.35824e-24 -2.18872e-23 -3.2892e-22 7.3543e-24 -1.30352e-34 
1.05249e-22 -7.54373e-25 -1.94656e-23 3.31853e-25 -4.07518e-24 -1.05155e-22 1.7927e-24 1.0404e-34 
4.96728e-23 -6.11713e-25 -8.98907e-24 4.09234e-25 -3.369e-24 -4.95072e-23 2.25385e-24 5.30352e-35 
4.36648e-23 -5.19663e-27 -1.09162e-23 1.56155e-29 -2.07865e-26 -4.36647e-23 6.2462e-29 -7.70372e-35 
0 0 0 0 0 0 0 0 
0 0 0 0 0 0 0 0 
0 0 0 0 0 0 0 0 
8.09968e-23 -5.72032e-25 -1.49802e-23 2.55385e-25 -3.09023e-24 -8.09261e-23 1.37964e-24 2.60107e-35 
3.68231e-23 -2.05856e-25 -6.62243e-24 3.4832e-25 -1.14251e-24 -3.67546e-23 1.93318e-24 5.34447e-35 
1.81301e-22 -1.73277e-24 -3.29477e-23 1.32492e-24 -9.5141e-24 -1.80905e-22 7.27472e-24 -2.64366e-35 
3.12202e-23 -4.86231e-26 -1.02101e-23 1.18262e-25 -1.48667e-25 -3.12177e-23 3.6159e-25 -5.8886e-35 
2.07754e-22 -6.02336e-25 -3.42472e-23 3.87374e-25 -3.65315e-24 -2.07709e-22 2.34942e-24 3.2122e-34 
0 0 0 0 0 0 0 0 
0 0 0 0 0 0 0 0 
0 0 0 0 0 0 0 0 
0 0 0 0 0 0 0 0 
3.56385e-22 -1.30597e-24 -1.26962e-22 0 -3.6657e-24 -3.56366e-22 0 -4.05437e-35 
0 0 0 0 0 0 0 0 
0 0 0 0 0 0 0 0 
0 0 0 0 0 0 0 0 
1.56828e-22 -1.10902e-24 -2.89527e-23 -5.73045e-25 -6.00163e-24 -1.56682e-22 -3.10113e-24 5.21124e-35 
0 0 0 0 0 0 0 0 
2.43067e-22 -1.21559e-24 -4.43345e-23 -1.53282e-24 -6.65811e-24 -2.42831e-22 -8.3956e-24 2.10976e-34 
0 0 0 0 0 0 0 0 
3.8286e-23 -6.63203e-26 -6.31125e-24 -7.13873e-26 -4.02271e-25 -3.82814e-23 -4.33006e-25 0 
3.0408e-22 -2.84237e-24 -1.08328e-22 0 -7.97583e-24 -3.03975e-22 0 -9.45746e-35 
1.49284e-22 -5.06681e-26 -1.06365e-22 0 -7.11131e-26 -1.49284e-22 0 4.05459e-35 
0 0 0 0 0 0 0 0 
6.45063e-22 -7.67545e-24 -1.17926e-22 0 -4.18967e-23 -6.43701e-22 0 -1.31409e-34 
0 0 0 0 0 0 0 0 
0 0 0 0 0 0 0 0 
0 0 0 0 0 0 0 0 
0 0 0 0 0 0 0 0 
0 0 0 0 0 0 0 0 
0 0 0 0 0 0 0 0 
0 0 0 0 0 0 0 0 
0 0 0 0 0 0 0 0 
0 0 0 0 0 0 0 0 
0 0 0 0 0 0 0 0 
0 0 0 0 0 0 0 0 
0 0 0 0 0 0 0 0 
0 0 0 0 0 0 0 0 
0 0 0 0 0 0 0 0 
0 0 0 0 0 0 0 0 
0 0 0 0 0 0 0 0 
0 0 0 0 0 0 0 0 
0 0 0 0 0 0 0 0 
0 0 0 0 0 0 0 0 
0 0 0 0 0 0 0 0 
0 0 0 0 0 0 0 0 
0 0 0 0 0 0 0 0 
0 0 0 0 0 0 0 0 
0 0 0 0 0 0 0 0 
0 0 0 0 0 0 0 0 
0 0 0 0 0 0 0 0 
0 0 0 0 0 0 0 0 
0 0 0 0 0 0 0 0 
0 0 0 0 0 0 0 0 
0 0 0 0 0 0 0 0 
0 0 0 0 0 0 0 0 
0 0 0 0 0 0 0 0 
0 0 0 0 0 0 0 0 
0 0 0 0 0 0 0 0 
0 0 0 0 0 0 0 0 
0 0 0 0 0 0 0 0 
0 0 0 0 0 0 0 0 
0 0 0 0 0 0 0 0 
0 0 0 0 0 0 0 0 
0 0 0 0 0 0 0 0 
0 0 0 0 0 0 0 0 
0 0 0 0 0 0 0 0 
0 0 0 0 0 0 0 0 
0 0 0 0 0 0 0 0 
0 0 0 0 0 0 0 0 
0 0 0 0 0 0 0 0 
0 0 0 0 0 0 0 0 
0 0 0 0 0 0 0 0 
0 0 0 0 0 0 0 0 
0 0 0 0 0 0 0 0 
4.75825e-23 -1.74126e-24 -3.06218e-25 -9.73842e-24 -8.37106e-24 -1.47214e-24 -4.68172e-23 -4.62943e-35 
0 0 0 0 0 0 0 0 
0 0 0 0 0 0 0 0 
0 0 0 0 0 0 0 0 
0 0 0 0 0 0 0 0 
0 0 0 0 0 0 0 0 
0 0 0 0 0 0 0 0 
0 0 0 0 0 0 0 0 
0 0 0 0 0 0 0 0 
0 0 0 0 0 0 0 0 
0 0 0 0 0 0 0 0 
0 0 0 0 0 0 0 0 
0 0 0 0 0 0 0 0 
1.49562e-22 -2.51358e-24 -1.19174e-24 -1.0264e-23 -3.53515e-23 -1.67609e-23 -1.44354e-22 0 
0 0 0 0 0 0 0 0 
1.01254e-22 -3.1168e-24 -1.38663e-24 -1.41508e-23 -2.16806e-23 -9.64551e-24 -9.8434e-23 6.69844e-35 
0 0 0 0 0 0 0 0 
0 0 0 0 0 0 0 0 
0 0 0 0 0 0 0 0 
0 0 0 0 0 0 0 0 
0 0 0 0 0 0 0 0 
0 0 0 0 0 0 0 0 
0 0 0 0 0 0 0 0 
0 0 0 0 0 0 0 0 
0 0 0 0 0 0 0 0 
0 0 0 0 0 0 0 0 
0 0 0 0 0 0 0 0 
0 0 0 0 0 0 0 0 
0 0 0 0 0 0 0 0 
0 0 0 0 0 0 0 0 
0 0 0 0 0 0 0 0 
0 0 0 0 0 0 0 0 
0 0 0 0 0 0 0 0 
7.43263e-23 -1.58461e-24 5.66321e-25 -7.99215e-24 -1.44206e-23 5.15374e-24 -7.27316e-23 0 
1.99545e-22 -6.00424e-24 2.73094e-24 -2.78697e-23 -4.18343e-23 1.90277e-23 -1.94181e-22 0 
0 0 0 0 0 0 0 0 
0 0 0 0 0 0 0 0 
0 0 0 0 0 0 0 0 
0 0 0 0 0 0 0 0 
0 0 0 0 0 0 0 0 
0 0 0 0 0 0 0 0 
0 0 0 0 0 0 0 0 
0 0 0 0 0 0 0 0 
1.4638e-22 -2.35153e-24 1.44213e-24 -9.52451e-24 -3.47135e-23 2.12889e-23 -1.40601e-22 0 
0 0 0 0 0 0 0 0 
0 0 0 0 0 0 0 0 
0 0 0 0 0 0 0 0 
0 0 0 0 0 0 0 0 
0 0 0 0 0 0 0 0 
0 0 0 0 0 0 0 0 
0 0 0 0 0 0 0 0 
0 0 0 0 0 0 0 0 
0 0 0 0 0 0 0 0 
0 0 0 0 0 0 0 0 
0 0 0 0 0 0 0 0 
0 0 0 0 0 0 0 0 
0 0 0 0 0 0 0 0 
0 0 0 0 0 0 0 0 
0 0 0 0 0 0 0 0 
0 0 0 0 0 0 0 0 
0 0 0 0 0 0 0 0 
0 0 0 0 0 0 0 0 
7.33228e-24 -1.19386e-24 6.77074e-24 -7.27531e-26 -1.27317e-24 7.22048e-24 -7.75856e-26 1.02693e-35 
0 0 0 0 0 0 0 0 
0 0 0 0 0 0 0 0 
0 0 0 0 0 0 0 0 
0 0 0 0 0 0 0 0 
0 0 0 0 0 0 0 0 
0 0 0 0 0 0 0 0 
0 0 0 0 0 0 0 0 
0 0 0 0 0 0 0 0 
0 0 0 0 0 0 0 0 
0 0 0 0 0 0 0 0 
0 0 0 0 0 0 0 0 
0 0 0 0 0 0 0 0 
0 0 0 0 0 0 0 0 
1.27251e-22 -2.88989e-24 1.42487e-23 -8.07828e-25 -2.5255e-23 1.2452e-22 -7.05966e-24 8.41541e-35 
0 0 0 0 0 0 0 0 
0 0 0 0 0 0 0 0 
0 0 0 0 0 0 0 0 
0 0 0 0 0 0 0 0 
0 0 0 0 0 0 0 0 
0 0 0 0 0 0 0 0 
0 0 0 0 0 0 0 0 
0 0 0 0 0 0 0 0 
0 0 0 0 0 0 0 0 
0 0 0 0 0 0 0 0 
0 0 0 0 0 0 0 0 
5.61453e-23 -1.92027e-24 1.05477e-23 -3.99174e-25 -1.00493e-23 5.51991e-23 -2.08899e-24 5.03946e-35 
0 0 0 0 0 0 0 0 
0 0 0 0 0 0 0 0 
0 0 0 0 0 0 0 0 
0 0 0 0 0 0 0 0 
0 0 0 0 0 0 0 0 
0 0 0 0 0 0 0 0 
0 0 0 0 0 0 0 0 
0 0 0 0 0 0 0 0 
0 0 0 0 0 0 0 0 
0 0 0 0 0 0 0 0 
0 0 0 0 0 0 0 0 
0 0 0 0 0 0 0 0 
0 0 0 0 0 0 0 0 
0 0 0 0 0 0 0 0 
0 0 0 0 0 0 0 0 
0 0 0 0 0 0 0 0 
1.37492e-22 -3.80931e-24 1.50562e-23 1.45026e-24 -3.35776e-23 1.32715e-22 1.27835e-23 -8.48816e-35 
3.35836e-22 -5.1679e-24 2.24039e-23 1.81755e-24 -7.52503e-23 3.26225e-22 2.64656e-23 0 
0 0 0 0 0 0 0 0 
0 0 0 0 0 0 0 0 
0 0 0 0 0 0 0 0 
0 0 0 0 0 0 0 0 
0 0 0 0 0 0 0 0 
0 0 0 0 0 0 0 0 
0 0 0 0 0 0 0 0 
0 0 0 0 0 0 0 0 
0 0 0 0 0 0 0 0 
0 0 0 0 0 0 0 0 
0 0 0 0 0 0 0 0 
0 0 0 0 0 0 0 0 
0 0 0 0 0 0 0 0 
0 0 0 0 0 0 0 0 
0 0 0 0 0 0 0 0 
0 0 0 0 0 0 0 0 
0 0 0 0 0 0 0 0 
0 0 0 0 0 0 0 0 
0 0 0 0 0 0 0 0 
0 0 0 0 0 0 0 0 
0 0 0 0 0 0 0 0 
0 0 0 0 0 0 0 0 
2.05735e-23 -7.52875e-25 1.32401e-25 4.21064e-24 -3.61943e-24 6.36515e-25 2.02426e-23 0 
0 0 0 0 0 0 0 0 
0 0 0 0 0 0 0 0 
0 0 0 0 0 0 0 0 
0 0 0 0 0 0 0 0 
0 0 0 0 0 0 0 0 
0 0 0 0 0 0 0 0 
0 0 0 0 0 0 0 0 
0 0 0 0 0 0 0 0 
0 0 0 0 0 0 0 0 
0 0 0 0 0 0 0 0 
0 0 0 0 0 0 0 0 
0 0 0 0 0 0 0 0 
0 0 0 0 0 0 0 0 
0 0 0 0 0 0 0 0 
0 0 0 0 0 0 0 0 
6.48854e-23 -1.76929e-24 1.20251e-24 7.98487e-24 -1.38875e-23 9.43877e-24 6.2675e-23 0 
0 0 0 0 0 0 0 0 
0 0 0 0 0 0 0 0 
0 0 0 0 0 0 0 0 
0 0 0 0 0 0 0 0 
0 0 0 0 0 0 0 0 
0 0 0 0 0 0 0 0 
0 0 0 0 0 0 0 0 
0 0 0 0 0 0 0 0 
0 0 0 0 0 0 0 0 
0 0 0 0 0 0 0 0 
0 0 0 0 0 0 0 0 
0 0 0 0 0 0 0 0 
0 0 0 0 0 0 0 0 
0 0 0 0 0 0 0 0 
0 0 0 0 0 0 0 0 
0 0 0 0 0 0 0 0 
6.478e-23 -1.38109e-24 -4.93584e-25 6.96565e-24 -1.25684e-23 -4.4918e-24 6.33902e-23 0 
0 0 0 0 0 0 0 0 
0 0 0 0 0 0 0 0 
0 0 0 0 0 0 0 0 
0 0 0 0 0 0 0 0 
0 0 0 0 0 0 0 0 
0 0 0 0 0 0 0 0 
0 0 0 0 0 0 0 0 
0 0 0 0 0 0 0 0 
0 0 0 0 0 0 0 0 
0 0 0 0 0 0 0 0 
0 0 0 0 0 0 0 0 
0 0 0 0 0 0 0 0 
0 0 0 0 0 0 0 0 
0 0 0 0 0 0 0 0 
0 0 0 0 0 0 0 0 
0 0 0 0 0 0 0 0 
0 0 0 0 0 0 0 0 
0 0 0 0 0 0 0 0 
0 0 0 0 0 0 0 0 
0 0 0 0 0 0 0 0 
0 0 0 0 0 0 0 0 
0 0 0 0 0 0 0 0 
0 0 0 0 0 0 0 0 
0 0 0 0 0 0 0 0 
0 0 0 0 0 0 0 0 
0 0 0 0 0 0 0 0 
0 0 0 0 0 0 0 0 
0 0 0 0 0 0 0 0 
0 0 0 0 0 0 0 0 
0 0 0 0 0 0 0 0 
0 0 0 0 0 0 0 0 
2.17907e-23 -1.75442e-24 -9.90987e-24 1.32008e-25 -3.79838e-24 -2.14552e-23 2.85802e-25 2.08485e-35 
0 0 0 0 0 0 0 0 
1.16874e-22 -1.97688e-24 -8.03409e-24 9.77977e-25 -2.77321e-23 -1.12704e-22 1.37193e-23 0 
8.25336e-23 -1.27101e-24 -5.47537e-24 4.86502e-25 -1.8593e-23 -8.00965e-23 7.1168e-24 0 
0 0 0 0 0 0 0 0 
0 0 0 0 0 0 0 0 
0 0 0 0 0 0 0 0 
5.89185e-23 -2.10721e-24 -1.10037e-23 6.76661e-25 -1.10614e-23 -5.77618e-23 3.552e-24 -5.0549e-35 
0 0 0 0 0 0 0 0 
0 0 0 0 0 0 0 0 
0 0 0 0 0 0 0 0 
0 0 0 0 0 0 0 0 
0 0 0 0 0 0 0 0 
0 0 0 0 0 0 0 0 
1.59359e-22 -4.84372e-24 -2.2756e-23 1.83275e-24 -3.30746e-23 -1.55386e-22 1.25147e-23 -6.57546e-35 
0 0 0 0 0 0 0 0 
0 0 0 0 0 0 0 0 
0 0 0 0 0 0 0 0 
0 0 0 0 0 0 0 0 
0 0 0 0 0 0 0 0 
0 0 0 0 0 0 0 0 
0 0 0 0 0 0 0 0 
0 0 0 0 0 0 0 0 
0 0 0 0 0 0 0 0 
0 0 0 0 0 0 0 0 
0 0 0 0 0 0 0 0 
0 0 0 0 0 0 0 0 
0 0 0 0 0 0 0 0 
0 0 0 0 0 0 0 0 
0 0 0 0 0 0 0 0 
0 0 0 0 0 0 0 0 
0 0 0 0 0 0 0 0 
0 0 0 0 0 0 0 0 
0 0 0 0 0 0 0 0 
2.32958e-22 -3.64552e-24 -1.62567e-23 -1.72833e-24 -5.07021e-23 -2.26099e-22 -2.40378e-23 0 
0 0 0 0 0 0 0 0 
0 0 0 0 0 0 0 0 
0 0 0 0 0 0 0 0 
0 0 0 0 0 0 0 0 
0 0 0 0 0 0 0 0 
3.87454e-22 -1.07347e-23 -4.24286e-23 -4.08686e-24 -9.46221e-23 -3.73992e-22 -3.60241e-23 8.48816e-35 
0 0 0 0 0 0 0 0 
0 0 0 0 0 0 0 0 
0 0 0 0 0 0 0 0 
0 0 0 0 0 0 0 0 
0 0 0 0 0 0 0 0 
0 0 0 0 0 0 0 0 
0 0 0 0 0 0 0 0 
0 0 0 0 0 0 0 0 
0 0 0 0 0 0 0 0 
0 0 0 0 0 0 0 0 
0 0 0 0 0 0 0 0 
0 0 0 0 0 0 0 0 
0 0 0 0 0 0 0 0 
0 0 0 0 0 0 0 0 
0 0 0 0 0 0 0 0 
1.17598e-23 -1.42114e-24 -8.06039e-24 -8.76695e-26 -2.04178e-24 -1.15805e-23 -1.25956e-25 1.38351e-35 
0 0 0 0 0 0 0 0 
0 0 0 0 0 0 0 0 
0 0 0 0 0 0 0 0 
0 0 0 0 0 0 0 0 
0 0 0 0 0 0 0 0 
0 0 0 0 0 0 0 0 
0 0 0 0 0 0 0 0 
0 0 0 0 0 0 0 0 
0 0 0 0 0 0 0 0 
0 0 0 0 0 0 0 0 
0 0 0 0 0 0 0 0 
0 0 0 0 0 0 0 0 
0 0 0 0 0 0 0 0 
0 0 0 0 0 0 0 0 
0 0 0 0 0 0 0 0 
0 0 0 0 0 0 0 0 
0 0 0 0 0 0 0 0 
0 0 0 0 0 0 0 0 
0 0 0 0 0 0 0 0 
0 0 0 0 0 0 0 0 
0 0 0 0 0 0 0 0 
0 0 0 0 0 0 0 0 
0 0 0 0 0 0 0 0 
0 0 0 0 0 0 0 0 
0 0 0 0 0 0 0 0 
0 0 0 0 0 0 0 0 
0 0 0 0 0 0 0 0 
0 0 0 0 0 0 0 0 
0 0 0 0 0 0 0 0 
0 0 0 0 0 0 0 0 
0 0 0 0 0 0 0 0 
0 0 0 0 0 0 0 0 
0 0 0 0 0 0 0 0 
0 0 0 0 0 0 0 0 
0 0 0 0 0 0 0 0 
0 0 0 0 0 0 0 0 
0 0 0 0 0 0 0 0 
0 0 0 0 0 0 0 0 
0 0 0 0 0 0 0 0 
0 0 0 0 0 0 0 0 
0 0 0 0 0 0 0 0 
0 0 0 0 0 0 0 0 
0 0 0 0 0 0 0 0 
0 0 0 0 0 0 0 0 
0 0 0 0 0 0 0 0 
0 0 0 0 0 0 0 0 
0 0 0 0 0 0 0 0 
0 0 0 0 0 0 0 0 
0 0 0 0 0 0 0 0 
0 0 0 0 0 0 0 0 
0 0 0 0 0 0 0 0 
0 0 0 0 0 0 0 0 
0 0 0 0 0 0 0 0 
0 0 0 0 0 0 0 0 
0 0 0 0 0 0 0 0 
0 0 0 0 0 0 0 0 
0 0 0 0 0 0 0 0 
0 0 0 0 0 0 0 0 
0 0 0 0 0 0 0 0 
0 0 0 0 0 0 0 0 
0 0 0 0 0 0 0 0 
0 0 0 0 0 0 0 0 
0 0 0 0 0 0 0 0 
0 0 0 0 0 0 0 0 
0 0 0 0 0 0 0 0 
0 0 0 0 0 0 0 0 
0 0 0 0 0 0 0 0 
0 0 0 0 0 0 0 0 
0 0 0 0 0 0 0 0 
0 0 0 0 0 0 0 0 
0 0 0 0 0 0 0 0 
0 0 0 0 0 0 0 0 
0 0 0 0 0 0 0 0 
0 0 0 0 0 0 0 0 
0 0 0 0 0 0 0 0 
0 0 0 0 0 0 0 0 
0 0 0 0 0 0 0 0 
0 0 0 0 0 0 0 0 
0 0 0 0 0 0 0 0 
0 0 0 0 0 0 0 0 
0 0 0 0 0 0 0 0 
0 0 0 0 0 0 0 0 
0 0 0 0 0 0 0 0 
0 0 0 0 0 0 0 0 
0 0 0 0 0 0 0 0 
0 0 0 0 0 0 0 0 
0 0 0 0 0 0 0 0 
0 0 0 0 0 0 0 0 
0 0 0 0 0 0 0 0 
0 0 0 0 0 0 0 0 
0 0 0 0 0 0 0 0 
0 0 0 0 0 0 0 0 
0 0 0 0 0 0 0 0 
0 0 0 0 0 0 0 0 
0 0 0 0 0 0 0 0 
0 0 0 0 0 0 0 0 
0 0 0 0 0 0 0 0 
0 0 0 0 0 0 0 0 
0 0 0 0 0 0 0 0 
0 0 0 0 0 0 0 0 
0 0 0 0 0 0 0 0 
0 0 0 0 0 0 0 0 
0 0 0 0 0 0 0 0 
0 0 0 0 0 0 0 0 
0 0 0 0 0 0 0 0 
0 0 0 0 0 0 0 0 
0 0 0 0 0 0 0 0 
0 0 0 0 0 0 0 0 
0 0 0 0 0 0 0 0 
0 0 0 0 0 0 0 0 
0 0 0 0 0 0 0 0 
0 0 0 0 0 0 0 0 
0 0 0 0 0 0 0 0 
0 0 0 0 0 0 0 0 
0 0 0 0 0 0 0 0 
0 0 0 0 0 0 0 0 
0 0 0 0 0 0 0 0 
0 0 0 0 0 0 0 0 
0 0 0 0 0 0 0 0 
0 0 0 0 0 0 0 0 
0 0 0 0 0 0 0 0 
0 0 0 0 0 0 0 0 
0 0 0 0 0 0 0 0 
0 0 0 0 0 0 0 0 
0 0 0 0 0 0 0 0 
0 0 0 0 0 0 0 0 
0 0 0 0 0 0 0 0 
0 0 0 0 0 0 0 0 