ITEM: TIMESTEP
230
ITEM: NUMBER OF SURFS
6916
ITEM: BOX BOUNDS oo rr rr
-20 20
-20 20
-20 20
ITEM: SURFS f_save[1] f_save[2] f_save[3] f_save[4] f_save[5] f_save[6] f_save[7] f_save[8] 
2.67611e-18 -2.00792e-19 0 0 -2.67611e-18 0 0 0 
2.1703e-19 0 0 -6.51313e-19 0 0 -2.1703e-19 0 
3.66081e-22 2.74655e-23 0 0 3.66081e-22 0 0 0 
1.44203e-18 -3.51494e-20 0 0 -1.44203e-18 0 0 1.3339e-30 
1.38552e-18 -1.73191e-21 0 0 -1.38552e-18 0 0 0 
1.27981e-18 -1.59976e-21 0 0 -1.27981e-18 0 0 0 
1.38396e-18 -1.72995e-21 0 0 -1.38396e-18 0 0 0 
1.42145e-18 -3.46477e-20 0 0 -1.42145e-18 0 0 1.30759e-30 
1.4315e-18 -3.39981e-20 0 0 -1.4315e-18 0 0 0 
1.46176e-18 -3.47168e-20 0 0 -1.46176e-18 0 0 0 
1.54448e-18 -3.66816e-20 0 0 -1.54448e-18 0 0 0 
1.52981e-18 -3.63331e-20 0 0 -1.52981e-18 0 0 0 
1.50522e-18 -3.66898e-20 0 0 -1.50522e-18 0 0 0 
1.49278e-18 -3.54536e-20 0 0 -1.49278e-18 0 0 0 
1.45282e-18 -3.45044e-20 0 0 -1.45282e-18 0 0 0 
1.45772e-18 -3.55321e-20 0 0 -1.45772e-18 0 0 0 
1.45533e-18 -3.54737e-20 0 0 -1.45533e-18 0 0 1.34231e-30 
1.43076e-18 -3.39807e-20 0 0 -1.43076e-18 0 0 1.32322e-30 
1.43883e-18 -3.41723e-20 0 0 -1.43883e-18 0 0 0 
1.45881e-18 -3.55585e-20 0 0 -1.45881e-18 0 0 1.34283e-30 
1.41655e-18 -3.36429e-20 0 0 -1.41655e-18 0 0 0 
1.48807e-18 -3.53417e-20 0 0 -1.48807e-18 0 0 0 
1.45717e-18 -3.55186e-20 0 0 -1.45717e-18 0 0 0 
1.46081e-18 -3.46944e-20 0 0 -1.46081e-18 0 0 0 
1.53321e-18 -3.64137e-20 0 0 -1.53321e-18 0 0 0 
1.471e-18 -3.49363e-20 0 0 -1.471e-18 0 0 0 
1.54984e-18 -1.9373e-21 0 0 -1.54984e-18 0 0 0 
1.43417e-18 -3.40616e-20 0 0 -1.43417e-18 0 0 0 
1.42904e-18 -3.39397e-20 0 0 -1.42904e-18 0 0 0 
1.57224e-18 -1.9653e-21 0 0 -1.57224e-18 0 0 0 
1.39136e-18 -3.30448e-20 0 0 -1.39136e-18 0 0 0 
1.41251e-18 -3.35472e-20 0 0 -1.41251e-18 0 0 0 
1.70978e-18 -2.13723e-21 0 0 -1.70978e-18 0 0 0 
1.50356e-18 -3.66493e-20 0 0 -1.50356e-18 0 0 1.38399e-30 
1.44913e-18 -3.4417e-20 0 0 -1.44913e-18 0 0 0 
1.5577e-18 -1.94714e-21 0 0 -1.5577e-18 0 0 0 
1.46347e-18 -3.56721e-20 0 0 -1.46347e-18 0 0 1.34489e-30 
1.41149e-18 -3.35229e-20 0 0 -1.41149e-18 0 0 0 
1.44932e-18 -1.81166e-21 0 0 -1.44932e-18 0 0 0 
1.4111e-18 -3.35138e-20 0 0 -1.4111e-18 0 0 0 
1.411e-18 -3.43932e-20 0 0 -1.411e-18 0 0 0 
1.8349e-18 -2.29364e-21 0 0 -1.8349e-18 0 0 0 
1.41539e-18 -3.36157e-20 0 0 -1.41539e-18 0 0 0 
1.45077e-18 -3.53625e-20 0 0 -1.45077e-18 0 0 0 
1.42073e-18 -1.77591e-21 0 0 -1.42073e-18 0 0 0 
1.49829e-18 -3.55846e-20 0 0 -1.49829e-18 0 0 0 
1.4363e-18 -3.41121e-20 0 0 -1.4363e-18 0 0 0 
1.69375e-18 -2.1172e-21 0 0 -1.69375e-18 0 0 0 
1.21452e-18 -1.51816e-21 0 0 -1.21452e-18 0 0 0 
1.39275e-18 -1.74094e-21 0 0 -1.39275e-18 0 0 0 
1.44777e-18 -3.43846e-20 0 0 -1.44777e-18 0 0 1.33667e-30 
1.45906e-18 -3.46527e-20 0 0 -1.45906e-18 0 0 0 
1.44562e-18 -3.43337e-20 0 0 -1.44562e-18 0 0 1.32827e-30 
1.58732e-18 -1.98415e-21 0 0 -1.58732e-18 0 0 0 
1.42406e-18 -3.38214e-20 0 0 -1.42406e-18 0 0 0 
1.5483e-18 -3.6772e-20 0 0 -1.5483e-18 0 0 0 
1.5721e-18 -3.73373e-20 0 0 -1.5721e-18 0 0 0 
1.55513e-18 -1.94392e-21 0 0 -1.55513e-18 0 0 0 
1.53564e-18 -3.64713e-20 0 0 -1.53564e-18 0 0 0 
1.51431e-18 -3.59648e-20 0 0 -1.51431e-18 0 0 0 
1.45905e-18 -3.46523e-20 0 0 -1.45905e-18 0 0 0 
1.6524e-18 -2.06552e-21 0 0 -1.6524e-18 0 0 0 
1.44734e-18 -3.43745e-20 0 0 -1.44734e-18 0 0 0 
1.3899e-18 -3.38788e-20 0 0 -1.3899e-18 0 0 1.28526e-30 
1.68114e-18 -2.10144e-21 0 0 -1.68114e-18 0 0 0 
1.36989e-18 -3.25349e-20 0 0 -1.36989e-18 0 0 0 
1.47557e-18 -3.50448e-20 0 0 -1.47557e-18 0 0 0 
1.63485e-18 -2.04357e-21 0 0 -1.63485e-18 0 0 0 
1.41948e-18 -3.37129e-20 0 0 -1.41948e-18 0 0 0 
1.43333e-18 -3.40416e-20 0 0 -1.43333e-18 0 0 0 
1.51349e-18 -1.89185e-21 0 0 -1.51349e-18 0 0 0 
1.44759e-18 -3.43804e-20 0 0 -1.44759e-18 0 0 0 
1.41121e-18 -3.35162e-20 0 0 -1.41121e-18 0 0 0 
1.3909e-18 -1.73862e-21 0 0 -1.3909e-18 0 0 0 
1.60871e-18 -2.0109e-21 0 0 -1.60871e-18 0 0 0 
1.48081e-18 -3.51692e-20 0 0 -1.48081e-18 0 0 0 
1.50252e-18 -3.56849e-20 0 0 -1.50252e-18 0 0 0 
1.38772e-18 -1.73465e-21 0 0 -1.38772e-18 0 0 0 
1.42898e-18 -3.39382e-20 0 0 -1.42898e-18 0 0 0 
1.42817e-18 -3.39191e-20 0 0 -1.42817e-18 0 0 0 
1.51595e-18 -3.60039e-20 0 0 -1.51595e-18 0 0 0 
1.50141e-18 -3.56586e-20 0 0 -1.50141e-18 0 0 0 
1.49495e-18 -3.55052e-20 0 0 -1.49495e-18 0 0 0 
1.4707e-18 -3.58483e-20 0 0 -1.4707e-18 0 0 0 
1.45904e-18 -3.64762e-20 0 0 -1.45904e-18 0 0 0 
1.46882e-18 -3.67205e-20 0 0 -1.46882e-18 0 0 0 
1.39779e-18 -3.49448e-20 0 0 -1.39779e-18 0 0 0 
1.40207e-18 -3.50519e-20 0 0 -1.40207e-18 0 0 0 
1.45412e-18 -1.25054e-18 0 0 -1.45412e-18 0 0 1.34114e-30 
1.4567e-18 -6.91934e-19 0 0 -1.4567e-18 0 0 1.34291e-30 
1.45045e-18 -6.88964e-19 0 0 -1.45045e-18 0 0 0 
1.44791e-18 -6.87759e-19 0 0 -1.44791e-18 0 0 0 
1.45091e-18 -7.07317e-19 0 0 -1.45091e-18 0 0 0 
1.45594e-18 -1.25211e-18 0 0 -1.45594e-18 0 0 1.34218e-30 
1.4619e-18 -6.94402e-19 0 0 -1.4619e-18 0 0 0 
1.45319e-18 -6.90267e-19 0 0 -1.45319e-18 0 0 0 
1.45823e-18 -6.92659e-19 0 0 -1.45823e-18 0 0 0 
1.45697e-18 -7.10272e-19 0 0 -1.45697e-18 0 0 0 
1.48003e-18 -3.70008e-20 0 0 -1.48003e-18 0 0 1.36412e-30 
1.38582e-18 -3.46456e-20 0 0 -1.38582e-18 0 0 0 
1.51085e-18 -3.77713e-20 0 0 -1.51085e-18 0 0 1.39188e-30 
4.18786e-21 0 0 -2.4499e-20 0 0 -4.18786e-21 0 
2.98517e-20 3.73146e-23 0 0 2.98517e-20 0 0 0 
3.34297e-20 7.93956e-22 0 0 3.34297e-20 0 0 0 
0 0 0 0 0 0 0 0 
2.70079e-20 6.41437e-22 0 0 2.70079e-20 0 0 0 
5.36442e-20 1.27405e-21 0 0 5.36442e-20 0 0 0 
1.64675e-20 3.91103e-22 0 0 1.64675e-20 0 0 0 
5.48211e-20 1.30201e-21 0 0 5.48211e-20 0 0 0 
1.62819e-20 3.86694e-22 0 0 1.62819e-20 0 0 0 
5.0823e-20 1.20705e-21 0 0 5.0823e-20 0 0 0 
5.39632e-20 6.57677e-22 0 0 5.39632e-20 0 0 0 
1.29811e-20 3.08303e-22 0 0 1.29811e-20 0 0 1.1723e-32 
2.73024e-20 6.48433e-22 0 0 2.73024e-20 0 0 0 
2.56943e-20 6.1024e-22 0 0 2.56943e-20 0 0 0 
6.0624e-20 1.43982e-21 0 0 6.0624e-20 0 0 0 
2.50744e-20 5.95517e-22 0 0 2.50744e-20 0 0 0 
3.79733e-20 9.01864e-22 0 0 3.79733e-20 0 0 0 
4.80155e-20 1.14037e-21 0 0 4.80155e-20 0 0 0 
2.23504e-20 2.7938e-23 0 0 2.23504e-20 0 0 0 
4.21453e-20 1.00095e-21 0 0 4.21453e-20 0 0 0 
2.71744e-20 6.45391e-22 0 0 2.71744e-20 0 0 0 
2.18241e-20 2.72802e-23 0 0 2.18241e-20 0 0 0 
2.15994e-20 5.12986e-22 0 0 2.15994e-20 0 0 0 
3.31097e-20 7.86356e-22 0 0 3.31097e-20 0 0 0 
1.52645e-20 1.90806e-23 0 0 1.52645e-20 0 0 0 
1.49073e-20 3.54049e-22 0 0 1.49073e-20 0 0 0 
1.27957e-20 3.03899e-22 0 0 1.27957e-20 0 0 0 
5.77126e-20 7.21408e-23 0 0 5.77126e-20 0 0 0 
5.78787e-21 7.23486e-24 0 0 5.78787e-21 0 0 0 
2.05024e-20 4.86932e-22 0 0 2.05024e-20 0 0 0 
1.76064e-20 4.18152e-22 0 0 1.76064e-20 0 0 0 
3.17278e-20 7.53537e-22 0 0 3.17278e-20 0 0 0 
3.38383e-20 8.03659e-22 0 0 3.38383e-20 0 0 0 
0 0 0 0 0 0 0 0 
1.96339e-20 4.66306e-22 0 0 1.96339e-20 0 0 0 
2.27509e-20 5.40334e-22 0 0 2.27509e-20 0 0 0 
6.4505e-21 8.06314e-24 0 0 6.4505e-21 0 0 0 
4.18126e-20 5.22659e-23 0 0 4.18126e-20 0 0 0 
2.96522e-20 7.04238e-22 0 0 2.96522e-20 0 0 0 
2.33729e-20 5.55107e-22 0 0 2.33729e-20 0 0 0 
2.57469e-20 6.11488e-22 0 0 2.57469e-20 0 0 0 
1.86746e-20 2.33433e-23 0 0 1.86746e-20 0 0 0 
2.25046e-20 5.34485e-22 0 0 2.25046e-20 0 0 0 
2.50025e-20 5.93811e-22 0 0 2.50025e-20 0 0 0 
5.33212e-20 6.66516e-23 0 0 5.33212e-20 0 0 0 
5.48698e-20 1.30316e-21 0 0 5.48698e-20 0 0 0 
2.92558e-20 6.94824e-22 0 0 2.92558e-20 0 0 0 
3.9869e-20 9.46889e-22 0 0 3.9869e-20 0 0 0 
2.55027e-20 3.18784e-23 0 0 2.55027e-20 0 0 0 
7.51191e-21 1.83104e-22 0 0 7.51191e-21 0 0 0 
2.07558e-20 2.59449e-23 0 0 2.07558e-20 0 0 0 
3.44111e-20 8.3877e-22 0 0 3.44111e-20 0 0 3.15621e-32 
4.75263e-20 1.12875e-21 0 0 4.75263e-20 0 0 0 
4.6577e-20 1.13532e-21 0 0 4.6577e-20 0 0 0 
5.27936e-20 1.28684e-21 0 0 5.27936e-20 0 0 4.93829e-32 
2.70282e-20 6.41921e-22 0 0 2.70282e-20 0 0 0 
0 0 0 0 0 0 0 0 
1.54368e-20 3.76274e-22 0 0 1.54368e-20 0 0 0 
7.07325e-21 8.84163e-24 0 0 7.07325e-21 0 0 0 
8.05911e-21 1.00739e-23 0 0 8.05911e-21 0 0 0 
3.96325e-20 4.95408e-23 0 0 3.96325e-20 0 0 0 
5.64689e-20 7.05864e-23 0 0 5.64689e-20 0 0 0 
0 0 0 0 0 0 0 0 
5.88784e-21 7.35986e-24 0 0 5.88784e-21 0 0 0 
2.29216e-20 5.58715e-22 0 0 2.29216e-20 0 0 0 
3.75128e-20 8.90934e-22 0 0 3.75128e-20 0 0 0 
3.29097e-20 4.11372e-23 0 0 3.29097e-20 0 0 0 
3.02512e-20 7.37373e-22 0 0 3.02512e-20 0 0 0 
3.98632e-20 9.46755e-22 0 0 3.98632e-20 0 0 0 
3.538e-20 4.42252e-23 0 0 3.538e-20 0 0 0 
3.26572e-20 7.9602e-22 0 0 3.26572e-20 0 0 0 
1.37272e-20 3.26021e-22 0 0 1.37272e-20 0 0 1.22078e-32 
1.56049e-20 3.8037e-22 0 0 1.56049e-20 0 0 0 
1.45648e-20 3.45915e-22 0 0 1.45648e-20 0 0 1.30672e-32 
2.7358e-20 6.49756e-22 0 0 2.7358e-20 0 0 0 
6.02572e-20 1.43111e-21 0 0 6.02572e-20 0 0 0 
4.67981e-20 1.11146e-21 0 0 4.67981e-20 0 0 0 
1.44587e-20 3.43396e-22 0 0 1.44587e-20 0 0 0 
1.55551e-20 3.69434e-22 0 0 1.55551e-20 0 0 1.39707e-32 
3.40043e-20 8.28854e-22 0 0 3.40043e-20 0 0 3.0918e-32 
1.48454e-20 3.61859e-22 0 0 1.48454e-20 0 0 0 
1.09783e-19 6.86145e-23 0 0 1.09783e-19 0 0 0 
3.60632e-20 4.3952e-22 0 0 3.60632e-20 0 0 0 
3.56198e-19 -3.74005e-19 -4.58061e-19 -4.58061e-19 -1.78099e-19 -2.18126e-19 -2.18126e-19 -1.20122e-31 
3.82733e-21 0 0 -5.6598e-19 0 0 -3.82733e-21 0 
2.60032e-21 0 5.26788e-19 -5.26788e-19 0 1.8387e-21 -1.8387e-21 -1.34808e-34 
3.56891e-19 -3.74733e-19 4.58952e-19 4.58952e-19 -1.78446e-19 2.1855e-19 2.1855e-19 -1.20923e-31 
3.83679e-21 0 0 5.6738e-19 0 0 3.83679e-21 0 
3.0511e-21 0 -2.78311e-19 2.78311e-19 0 -2.15745e-21 2.15745e-21 1.89857e-34 
4.5955e-21 0 -2.68836e-20 0 0 -4.5955e-21 0 0 
4.58637e-21 0 2.68302e-20 0 0 4.58637e-21 0 0 
4.22146e-21 0 0 -2.40623e-20 0 0 -4.22146e-21 0 
4.37296e-21 0 0 2.49259e-20 0 0 4.37296e-21 0 
4.32014e-21 0 0 -2.46248e-20 0 0 -4.32014e-21 0 
4.34846e-21 0 0 2.47862e-20 0 0 4.34846e-21 0 
4.59472e-21 0 0 2.61899e-20 0 0 4.59472e-21 0 
4.52796e-21 0 0 -2.58094e-20 0 0 -4.52796e-21 0 
4.19947e-21 0 0 -2.3937e-20 0 0 -4.19947e-21 0 
4.16043e-21 0 0 2.37145e-20 0 0 4.16043e-21 0 
4.33448e-21 0 0 -2.47065e-20 0 0 -4.33448e-21 0 
4.31866e-21 0 0 2.46163e-20 0 0 4.31866e-21 0 
4.59957e-21 0 -2.62175e-20 0 0 -4.59957e-21 0 0 
4.40127e-21 0 2.50873e-20 0 0 4.40127e-21 0 0 
4.80278e-21 0 0 -2.73758e-20 0 0 -4.80278e-21 0 
4.91294e-21 0 0 2.80038e-20 0 0 4.91294e-21 0 
4.81637e-21 0 -2.74533e-20 0 0 -4.81637e-21 0 0 
4.8047e-21 0 2.73868e-20 0 0 4.8047e-21 0 0 
4.50953e-21 0 -2.57043e-20 0 0 -4.50953e-21 0 0 
4.58572e-21 0 2.61386e-20 0 0 4.58572e-21 0 0 
4.8155e-21 0 2.81707e-20 0 0 4.8155e-21 0 0 
4.82609e-21 0 -2.82326e-20 0 0 -4.82609e-21 0 0 
4.68112e-21 0 2.73846e-20 0 0 4.68112e-21 0 0 
4.65972e-21 0 -2.72593e-20 0 0 -4.65972e-21 0 0 
4.49944e-21 0 -2.56468e-20 0 0 -4.49944e-21 0 0 
4.2939e-21 0 2.44752e-20 0 0 4.2939e-21 0 0 
4.12993e-21 0 2.41601e-20 0 0 4.12993e-21 0 0 
4.2373e-21 0 -1.23941e-20 0 0 -4.2373e-21 0 0 
4.14223e-21 0 0 1.2116e-20 0 0 4.14223e-21 0 
5.54465e-21 0 0 -3.16045e-20 0 0 -5.54465e-21 0 
5.32547e-21 0 0 3.03552e-20 0 0 5.32547e-21 0 
4.65476e-21 0 0 2.72303e-20 0 0 4.65476e-21 0 
4.52804e-21 0 0 -2.64891e-20 0 0 -4.52804e-21 0 
4.49124e-21 0 -2.56001e-20 0 0 -4.49124e-21 0 0 
4.43641e-21 0 2.52876e-20 0 0 4.43641e-21 0 0 
4.93021e-21 0 -2.81022e-20 0 0 -4.93021e-21 0 0 
4.81411e-21 0 2.74404e-20 0 0 4.81411e-21 0 0 
4.5326e-21 0 0 2.58358e-20 0 0 4.5326e-21 0 
4.64643e-21 0 0 -2.64847e-20 0 0 -4.64643e-21 0 
4.9202e-21 0 -2.80452e-20 0 0 -4.9202e-21 0 0 
4.80222e-21 0 2.73727e-20 0 0 4.80222e-21 0 0 
4.54595e-21 0 0 2.59119e-20 0 0 4.54595e-21 0 
4.6365e-21 0 0 -2.6428e-20 0 0 -4.6365e-21 0 
4.39029e-21 0 -2.50246e-20 0 0 -4.39029e-21 0 0 
4.35697e-21 0 2.48347e-20 0 0 4.35697e-21 0 0 
4.99589e-21 0 0 2.84766e-20 0 0 4.99589e-21 0 
5.13832e-21 0 0 -2.92884e-20 0 0 -5.13832e-21 0 
4.81872e-21 0 2.74667e-20 0 0 4.81872e-21 0 0 
4.84125e-21 0 -2.75951e-20 0 0 -4.84125e-21 0 0 
4.46479e-21 0 2.54493e-20 0 0 4.46479e-21 0 0 
4.37899e-21 0 -2.49603e-20 0 0 -4.37899e-21 0 0 
4.95269e-21 0 0 -2.82304e-20 0 0 -4.95269e-21 0 
4.88807e-21 0 0 2.7862e-20 0 0 4.88807e-21 0 
4.84242e-21 0 0 2.76018e-20 0 0 4.84242e-21 0 
4.65268e-21 0 0 -2.65203e-20 0 0 -4.65268e-21 0 
5.48027e-21 0 0 3.12376e-20 0 0 5.48027e-21 0 
4.90617e-21 0 0 -2.79651e-20 0 0 -4.90617e-21 0 
4.8813e-21 0 -2.78234e-20 0 0 -4.8813e-21 0 0 
4.77402e-21 0 2.72119e-20 0 0 4.77402e-21 0 0 
4.69484e-21 0 -2.67606e-20 0 0 -4.69484e-21 0 0 
4.57294e-21 0 2.60658e-20 0 0 4.57294e-21 0 0 
4.04486e-21 0 2.36624e-20 0 0 4.04486e-21 0 0 
4.06386e-21 0 0 -2.37736e-20 0 0 -4.06386e-21 0 
4.46468e-21 0 -2.61184e-20 0 0 -4.46468e-21 0 0 
4.46121e-21 0 2.60981e-20 0 0 4.46121e-21 0 0 
4.88102e-21 0 2.85539e-20 0 0 4.88102e-21 0 0 
4.81335e-21 0 -2.81581e-20 0 0 -4.81335e-21 0 0 
4.51156e-21 0 0 -2.63926e-20 0 0 -4.51156e-21 0 
4.62455e-21 0 0 2.70536e-20 0 0 4.62455e-21 0 
4.63218e-21 0 0 2.70983e-20 0 0 4.63218e-21 0 
4.55936e-21 0 0 -2.66723e-20 0 0 -4.55936e-21 0 
5.07189e-21 0 -2.89098e-20 0 0 -5.07189e-21 0 0 
5.38159e-21 0 3.06751e-20 0 0 5.38159e-21 0 0 
4.76626e-21 0 0 -2.78826e-20 0 0 -4.76626e-21 0 
4.82188e-21 0 0 2.8208e-20 0 0 4.82188e-21 0 
4.03002e-21 0 -1.17878e-20 0 0 -4.03002e-21 0 0 
4.61001e-21 0 -2.69686e-20 0 0 -4.61001e-21 0 0 
4.61616e-21 0 2.70045e-20 0 0 4.61616e-21 0 0 
4.4424e-21 0 -2.5988e-20 0 0 -4.4424e-21 0 0 
4.46261e-21 0 2.61062e-20 0 0 4.46261e-21 0 0 
4.56425e-21 0 -2.60162e-20 0 0 -4.56425e-21 0 0 
4.71939e-21 0 2.69005e-20 0 0 4.71939e-21 0 0 
4.60457e-21 0 0 -2.69367e-20 0 0 -4.60457e-21 0 
4.61669e-21 0 0 2.70076e-20 0 0 4.61669e-21 0 
5.13644e-21 0 2.92777e-20 0 0 5.13644e-21 0 0 
5.03178e-21 0 -2.86812e-20 0 0 -5.03178e-21 0 0 
4.37045e-21 0 0 2.49115e-20 0 0 4.37045e-21 0 
4.31558e-21 0 0 -2.45988e-20 0 0 -4.31558e-21 0 
4.07248e-21 0 0 2.3824e-20 0 0 4.07248e-21 0 
4.20895e-21 0 1.23112e-20 0 0 4.20895e-21 0 0 
4.80026e-21 0 -2.73615e-20 0 0 -4.80026e-21 0 0 
4.62459e-21 0 2.63602e-20 0 0 4.62459e-21 0 0 
4.52601e-21 0 2.57983e-20 0 0 4.52601e-21 0 0 
4.53241e-21 0 -2.58347e-20 0 0 -4.53241e-21 0 0 
4.28334e-21 0 2.4415e-20 0 0 4.28334e-21 0 0 
4.41543e-21 0 -2.51679e-20 0 0 -4.41543e-21 0 0 
4.3851e-21 0 0 -2.49951e-20 0 0 -4.3851e-21 0 
4.39161e-21 0 0 2.50322e-20 0 0 4.39161e-21 0 
5.12285e-21 0 2.92003e-20 0 0 5.12285e-21 0 0 
4.92799e-21 0 -2.80896e-20 0 0 -4.92799e-21 0 0 
4.37029e-21 0 0 -2.49107e-20 0 0 -4.37029e-21 0 
4.40121e-21 0 0 2.50869e-20 0 0 4.40121e-21 0 
4.3622e-21 0 2.48645e-20 0 0 4.3622e-21 0 0 
4.46488e-21 0 -2.54498e-20 0 0 -4.46488e-21 0 0 
4.64085e-21 0 -2.64528e-20 0 0 -4.64085e-21 0 0 
4.42484e-21 0 2.52216e-20 0 0 4.42484e-21 0 0 
4.45203e-21 0 0 -2.53766e-20 0 0 -4.45203e-21 0 
4.31146e-21 0 0 2.45753e-20 0 0 4.31146e-21 0 
4.46767e-21 0 0 -2.54657e-20 0 0 -4.46767e-21 0 
4.50218e-21 0 0 2.56625e-20 0 0 4.50218e-21 0 
4.21847e-21 0 0 2.40453e-20 0 0 4.21847e-21 0 
4.27732e-21 0 0 -2.43807e-20 0 0 -4.27732e-21 0 
4.26825e-21 0 -2.4329e-20 0 0 -4.26825e-21 0 0 
4.26713e-21 0 2.43226e-20 0 0 4.26713e-21 0 0 
4.08976e-21 0 0 2.33116e-20 0 0 4.08976e-21 0 
4.19007e-21 0 0 -2.38834e-20 0 0 -4.19007e-21 0 
4.44475e-21 0 0 -2.53351e-20 0 0 -4.44475e-21 0 
4.6806e-21 0 0 2.66794e-20 0 0 4.6806e-21 0 
4.49132e-21 0 2.56005e-20 0 0 4.49132e-21 0 0 
4.49039e-21 0 -2.55952e-20 0 0 -4.49039e-21 0 0 
4.28505e-21 0 -2.44248e-20 0 0 -4.28505e-21 0 0 
4.31007e-21 0 2.45674e-20 0 0 4.31007e-21 0 0 
4.43127e-21 0 0 2.52582e-20 0 0 4.43127e-21 0 
4.42556e-21 0 0 -2.52257e-20 0 0 -4.42556e-21 0 
4.62631e-21 0 2.637e-20 0 0 4.62631e-21 0 0 
4.73803e-21 0 -2.70068e-20 0 0 -4.73803e-21 0 0 
4.41486e-21 0 0 2.51647e-20 0 0 4.41486e-21 0 
4.4221e-21 0 0 -2.52059e-20 0 0 -4.4221e-21 0 
5.17821e-21 -7.01834e-24 0 -3.68947e-21 -9.85029e-24 0 -5.1782e-21 -2.02729e-34 
1.20498e-20 -1.47723e-22 -4.96362e-23 -2.21997e-21 -7.99858e-22 -2.6876e-22 -1.20202e-20 4.50563e-34 
7.67264e-21 -5.49937e-23 -2.4192e-23 -1.41904e-21 -2.9708e-22 -1.30687e-22 -7.66577e-21 4.49522e-34 
1.4155e-20 -1.74316e-22 -1.16617e-22 -2.56156e-21 -9.60044e-22 -6.42266e-22 -1.41078e-20 -1.31147e-33 
5.35655e-21 -6.37494e-25 -1.91562e-27 -1.33914e-21 -2.54997e-24 -7.66249e-27 -5.35655e-21 -1.98664e-33 
5.95738e-21 -8.44007e-24 -4.42606e-23 -1.43094e-21 -3.51207e-23 -1.84177e-22 -5.95443e-21 -3.70219e-35 
5.17781e-21 -9.15314e-24 -2.89619e-23 -8.3467e-22 -5.67432e-23 -1.79544e-22 -5.17438e-21 -3.8933e-34 
5.20417e-21 -1.69743e-23 -4.09357e-23 -9.4036e-22 -9.38356e-23 -2.26297e-22 -5.1984e-21 6.3649e-35 
8.34233e-21 -5.89169e-23 -2.63036e-23 -1.5429e-21 -3.18281e-22 -1.42097e-22 -8.33505e-21 1.09414e-33 
6.85859e-21 -3.83423e-23 -6.48772e-23 -1.23348e-21 -2.12801e-22 -3.6007e-22 -6.84583e-21 -1.86476e-33 
8.25455e-21 -7.88923e-23 -6.0323e-23 -1.50009e-21 -4.33172e-22 -3.31214e-22 -8.23652e-21 6.49422e-34 
4.46809e-21 -6.95873e-24 -1.69251e-23 -1.46122e-21 -2.12765e-23 -5.17491e-23 -4.46774e-21 -2.86429e-34 
6.20623e-21 -1.79936e-23 -1.1572e-23 -1.02307e-21 -1.09131e-22 -7.01841e-23 -6.20487e-21 2.50755e-34 
7.11904e-21 -9.78571e-24 -3.38034e-23 -8.53002e-22 -8.16008e-23 -2.81879e-22 -7.11299e-21 -1.26559e-33 
4.62748e-21 -8.0294e-24 -1.30593e-23 -7.55714e-22 -4.91564e-23 -7.995e-23 -4.62652e-21 4.93413e-34 
6.04982e-21 -1.91885e-24 0 -1.13434e-22 -1.02324e-22 0 -6.04896e-21 7.25608e-34 
6.13013e-21 -1.98107e-23 3.21463e-23 -1.12158e-21 -1.08216e-22 1.756e-22 -6.12666e-21 -1.04918e-33 
5.5441e-21 -2.03164e-23 0 -1.97509e-21 -5.70254e-23 0 -5.54381e-21 4.24534e-34 
6.2641e-21 -7.98426e-25 2.01015e-23 -1.50902e-21 -3.31406e-24 8.34359e-23 -6.26354e-21 9.60153e-34 
5.64859e-21 -8.00259e-24 4.19664e-23 -1.35677e-21 -3.33003e-23 1.7463e-22 -5.64579e-21 -4.24663e-34 
9.72697e-21 -9.30743e-23 8.01365e-23 -1.76025e-21 -5.13073e-22 4.41754e-22 -9.70338e-21 4.18322e-34 
6.75873e-21 -4.77948e-23 2.46962e-23 -1.24776e-21 -2.58649e-22 1.33648e-22 -6.75246e-21 -5.35285e-34 
8.58313e-21 -7.42674e-23 9.40868e-23 -1.53504e-21 -4.14004e-22 5.24488e-22 -8.55708e-21 1.43829e-33 
5.9134e-21 -2.95733e-23 3.72907e-23 -1.07858e-21 -1.6198e-22 2.0425e-22 -5.90765e-21 -2.86652e-34 
6.80887e-21 -1.32535e-23 3.80853e-23 -1.0976e-21 -8.21616e-23 2.361e-22 -6.80428e-21 1.37561e-33 
5.61716e-21 -9.73024e-24 1.04737e-23 -9.2596e-22 -5.90196e-23 6.35289e-23 -5.61649e-21 -1.80942e-34 
6.51287e-21 -6.08787e-23 0 -2.32021e-21 -1.70829e-22 0 -6.51063e-21 1.81513e-33 
5.30617e-21 -1.80095e-24 0 -3.78065e-21 -2.52765e-24 0 -5.30617e-21 6.40508e-34 
5.29242e-21 -8.71559e-24 3.10874e-23 -1.28725e-21 -3.58221e-23 1.27773e-22 -5.29075e-21 4.81832e-34 
1.17408e-20 -1.39701e-22 0 -2.14636e-21 -7.62561e-22 0 -1.1716e-20 -9.65574e-34 
6.17536e-21 -8.36985e-24 4.39994e-21 0 -1.17471e-23 6.17535e-21 0 -4.59813e-34 
1.28269e-20 -1.57249e-22 2.36314e-21 -5.28372e-23 -8.51441e-22 1.27954e-20 -2.86092e-22 2.09696e-34 
6.87248e-21 -4.92585e-23 1.27105e-21 -2.16691e-23 -2.66099e-22 6.86633e-21 -1.17058e-22 -3.70361e-34 
1.50935e-20 -1.85874e-22 2.7314e-21 -1.24349e-22 -1.0237e-21 1.50432e-20 -6.84851e-22 -7.63822e-34 
4.84163e-21 -5.76212e-25 1.21041e-21 -1.73148e-27 -2.30485e-24 4.84163e-21 -6.9259e-27 7.85026e-34 
6.43877e-21 -9.12208e-24 1.54657e-21 -4.78371e-23 -3.79587e-23 6.43558e-21 -1.99059e-22 3.7893e-34 
4.97792e-21 -8.79979e-24 8.02448e-22 -2.78439e-23 -5.45527e-23 4.97463e-21 -1.72613e-22 -2.69286e-34 
6.76591e-21 -2.20682e-23 1.22255e-21 -5.32202e-23 -1.21995e-22 6.75841e-21 -2.94207e-22 -5.3523e-34 
7.19999e-21 -5.08493e-23 1.33162e-21 -2.27018e-23 -2.74698e-22 7.19371e-21 -1.2264e-22 6.44612e-34 
8.79748e-21 -4.91815e-23 1.58218e-21 -8.32176e-23 -2.72958e-22 8.78111e-21 -4.61859e-22 -1.98965e-33 
9.19008e-21 -8.78336e-23 1.67011e-21 -6.71598e-23 -4.82266e-22 9.17001e-21 -3.68753e-22 2.95975e-34 
4.64944e-21 -7.24117e-24 1.52053e-21 -1.76121e-23 -2.21401e-23 4.64908e-21 -5.38495e-23 1.68017e-34 
5.21658e-21 -1.51243e-23 8.59927e-22 -9.72675e-24 -9.17286e-23 5.21544e-21 -5.89926e-23 1.80924e-34 
6.23999e-21 -8.57738e-24 7.47674e-22 -2.96294e-23 -7.15248e-23 6.23468e-21 -2.47073e-22 -2.07731e-33 
4.41247e-21 -7.65633e-24 7.20602e-22 -1.24526e-23 -4.68725e-23 4.41156e-21 -7.62353e-23 9.93234e-34 
3.30179e-21 -1.04724e-24 6.19087e-23 0 -5.5845e-23 3.30132e-21 0 2.23264e-34 
5.66906e-21 -1.83207e-23 1.03722e-21 2.97285e-23 -1.00077e-22 5.66585e-21 1.62392e-22 -6.31797e-34 
5.39627e-21 -1.97747e-23 1.92242e-21 0 -5.55049e-23 5.39598e-21 0 2.18877e-34 
5.9165e-21 -7.5412e-25 1.42528e-21 1.8986e-23 -3.13016e-24 5.91597e-21 7.8806e-23 5.01799e-34 
6.25477e-21 -8.8614e-24 1.50238e-21 4.64701e-23 -3.68739e-23 6.25167e-21 1.93371e-22 -1.22608e-33 
1.0032e-20 -9.59925e-23 1.81544e-21 8.26491e-23 -5.2916e-22 1.00076e-20 4.55604e-22 6.0296e-34 
6.51156e-21 -4.60469e-23 1.20213e-21 2.37931e-23 -2.4919e-22 6.50552e-21 1.2876e-22 2.06184e-33 
9.5104e-21 -8.22908e-23 1.70087e-21 1.04251e-22 -4.58731e-22 9.48153e-21 5.8115e-22 7.11851e-34 
7.88835e-21 -3.94502e-23 1.4388e-21 4.9745e-23 -2.16078e-22 7.88068e-21 2.72465e-22 -6.22034e-34 
7.01691e-21 -1.36585e-23 1.13114e-21 3.92489e-23 -8.4672e-23 7.01218e-21 2.43313e-22 1.20042e-33 
6.1042e-21 -1.05739e-23 1.00625e-21 1.13818e-23 -6.41369e-23 6.10347e-21 6.90372e-23 4.76164e-35 
6.97533e-21 -6.52015e-23 2.48496e-21 0 -1.82959e-22 6.97293e-21 0 1.58163e-33 
5.27412e-21 -1.79007e-24 3.75781e-21 0 -2.51238e-24 5.27412e-21 0 6.39773e-34 
5.59501e-21 -9.21389e-24 1.36085e-21 3.28648e-23 -3.78702e-23 5.59325e-21 1.35078e-22 -2.77483e-34 
1.30629e-20 -1.55432e-22 2.38806e-21 0 -8.48433e-22 1.30353e-20 0 -1.10555e-33 
5.37895e-21 -7.29042e-24 0 3.8325e-21 -1.02322e-23 0 5.37894e-21 -3.79015e-34 
1.17926e-20 -1.44569e-22 4.85766e-23 2.17258e-21 -7.82783e-22 2.63022e-22 1.17636e-20 -6.14919e-34 
7.51932e-21 -5.38947e-23 2.37086e-23 1.39068e-21 -2.91144e-22 1.28076e-22 7.51259e-21 -4.12769e-34 
1.44471e-20 -1.77914e-22 1.19024e-22 2.61443e-21 -9.79858e-22 6.55521e-22 1.43989e-20 -2.8247e-34 
5.222e-21 -6.2148e-25 1.8675e-27 1.3055e-21 -2.48592e-24 7.47001e-27 5.222e-21 6.17554e-34 
6.03324e-21 -8.54755e-24 4.48242e-23 1.44917e-21 -3.5568e-23 1.86522e-22 6.03026e-21 1.24132e-34 
4.708e-21 -8.32264e-24 2.63341e-23 7.58937e-22 -5.15947e-23 1.63254e-22 4.70489e-21 -3.21197e-34 
5.49511e-21 -1.79232e-23 4.32242e-23 9.9293e-22 -9.90814e-23 2.38948e-22 5.48902e-21 -5.49696e-35 
8.04436e-21 -5.68125e-23 2.53641e-23 1.48779e-21 -3.06913e-22 1.37022e-22 8.03733e-21 9.66918e-34 
6.63249e-21 -3.70783e-23 6.27385e-23 1.19282e-21 -2.05785e-22 3.482e-22 6.62015e-21 -1.29545e-33 
8.97108e-21 -8.57404e-23 6.55593e-23 1.63031e-21 -4.70773e-22 3.59965e-22 8.95148e-21 -1.55172e-34 
5.39382e-21 -8.40047e-24 2.04317e-23 1.76397e-21 -2.56847e-23 6.24708e-23 5.39339e-21 -1.40814e-34 
5.67849e-21 -1.64635e-23 1.0588e-23 9.3607e-22 -9.98508e-23 6.42161e-23 5.67725e-21 1.71402e-34 
8.01823e-21 -1.10217e-23 3.80731e-23 9.60743e-22 -9.19076e-23 3.17483e-22 8.01141e-21 -1.90275e-33 
5.85334e-21 -1.01565e-23 1.65189e-23 9.5591e-22 -6.21784e-23 1.0113e-22 5.85214e-21 1.67248e-33 
4.53691e-21 -1.43899e-24 0 8.50671e-23 -7.67352e-23 0 4.53626e-21 -6.13976e-34 
4.9289e-21 -1.59287e-23 -2.58471e-23 9.01803e-22 -8.70108e-23 -1.4119e-22 4.92611e-21 -6.43232e-34 
5.23793e-21 -1.91944e-23 0 1.86601e-21 -5.38763e-23 0 5.23766e-21 -5.72901e-35 
6.07322e-21 -7.74097e-25 -1.94889e-23 1.46304e-21 -3.21307e-24 -8.08935e-23 6.07268e-21 7.12512e-34 
5.16243e-21 -7.31383e-24 -3.83545e-23 1.24e-21 -3.04342e-23 -1.596e-22 5.15987e-21 -8.88526e-34 
9.99434e-21 -9.56326e-23 -8.23392e-23 1.80863e-21 -5.27176e-22 -4.53896e-22 9.9701e-21 -9.52043e-35 
7.09981e-21 -5.02067e-23 -2.59425e-23 1.31073e-21 -2.71702e-22 -1.40392e-22 7.09322e-21 -1.04225e-33 
9.24714e-21 -8.0013e-23 -1.01366e-22 1.65379e-21 -4.46033e-22 -5.65063e-22 9.21908e-21 2.61109e-33 
6.6383e-21 -3.31986e-23 -4.18621e-23 1.2108e-21 -1.81837e-22 -2.29289e-22 6.63185e-21 -1.33006e-33 
6.59168e-21 -1.28307e-23 -3.68704e-23 1.06259e-21 -7.95408e-23 -2.28568e-22 6.58723e-21 1.09335e-33 
5.16957e-21 -8.95491e-24 -9.6391e-24 8.52178e-22 -5.43168e-23 -5.84668e-23 5.16896e-21 -3.61885e-34 
6.53605e-21 -6.10953e-23 0 2.32847e-21 -1.71437e-22 0 6.5338e-21 2.13086e-33 
5.63322e-21 -1.91195e-24 0 4.01367e-21 -2.68344e-24 0 5.63322e-21 4.45123e-34 
5.16973e-21 -8.51355e-24 -3.03668e-23 1.25741e-21 -3.49917e-23 -1.24811e-22 5.16811e-21 -1.14005e-34 
1.13032e-20 -1.34495e-22 0 2.06638e-21 -7.34145e-22 0 1.12794e-20 -7.54176e-34 
5.63764e-21 -7.64104e-24 -4.01682e-21 0 -1.07242e-23 -5.63763e-21 0 -1.80693e-34 
1.26009e-20 -1.54478e-22 -2.3215e-21 5.19062e-23 -8.36438e-22 -1.257e-20 2.81051e-22 8.78456e-34 
6.5444e-21 -4.6907e-23 -1.21037e-21 2.06347e-23 -2.53396e-22 -6.53854e-21 1.1147e-22 4.80621e-35 
1.57166e-20 -1.93547e-22 -2.84416e-21 1.29483e-22 -1.06596e-21 -1.56642e-20 7.13124e-22 -1.274e-33 
4.57248e-21 -5.44181e-25 -1.14312e-21 1.63522e-27 -2.17672e-24 -4.57248e-21 6.54089e-27 7.85026e-34 
5.2434e-21 -7.42854e-24 -1.25945e-21 3.8956e-23 -3.09115e-23 -5.2408e-21 1.62103e-22 3.70219e-34 
5.36188e-21 -9.47854e-24 -8.64343e-22 2.99916e-23 -5.87605e-23 -5.35833e-21 1.85927e-22 -5.02884e-34 
5.82772e-21 -1.90081e-23 -1.05303e-21 4.58405e-23 -1.05079e-22 -5.82126e-21 2.53411e-22 -4.3397e-35 
7.61451e-21 -5.37768e-23 -1.40829e-21 2.40088e-23 -2.90513e-22 -7.60786e-21 1.297e-22 8.05765e-34 
9.01833e-21 -5.04161e-23 -1.62189e-21 8.53067e-23 -2.7981e-22 -9.00154e-21 4.73454e-22 -2.649e-33 
8.7324e-21 -8.34593e-23 -1.58693e-21 6.38151e-23 -4.58248e-22 -8.71333e-21 3.50388e-22 -4.02297e-35 
4.87644e-21 -7.59469e-24 -1.59477e-21 1.84719e-23 -2.3221e-23 -4.87605e-21 5.64785e-23 -1.12011e-35 
5.21221e-21 -1.51116e-23 -8.59207e-22 9.7186e-24 -9.16518e-23 -5.21107e-21 5.89431e-23 5.07858e-34 
8.11582e-21 -1.11559e-23 -9.72436e-22 3.85365e-23 -9.30263e-23 -8.10893e-21 3.21347e-22 -2.43953e-33 
4.66576e-21 -8.09583e-24 -7.61967e-22 1.31674e-23 -4.95631e-23 -4.6648e-21 8.06115e-23 1.79423e-34 
6.74953e-22 -2.14078e-25 -1.26554e-23 0 -1.14158e-23 -6.74856e-22 0 2.7908e-34 
5.40375e-21 -1.74633e-23 -9.88682e-22 -2.83372e-23 -9.53933e-23 -5.40069e-21 -1.54792e-22 -8.66219e-34 
4.99276e-21 -1.8296e-23 -1.77867e-21 0 -5.13544e-23 -4.99249e-21 0 2.60009e-34 
6.27426e-21 -7.99721e-25 -1.51147e-21 -2.01341e-23 -3.31944e-24 -6.27371e-21 -8.35713e-23 5.88691e-34 
5.26856e-21 -7.46419e-24 -1.26549e-21 -3.9143e-23 -3.10599e-23 -5.26595e-21 -1.62881e-22 -5.6404e-34 
1.14003e-20 -1.09086e-22 -2.06307e-21 -9.39226e-23 -6.01339e-22 -1.13727e-20 -5.1775e-22 6.6643e-34 
6.71883e-21 -4.75126e-23 -1.24039e-21 -2.45504e-23 -2.57122e-22 -6.71259e-21 -1.32859e-22 1.46991e-33 
8.77553e-21 -7.59323e-23 -1.56945e-21 -9.61959e-23 -4.23285e-22 -8.7489e-21 -5.36245e-22 8.86896e-34 
7.85384e-21 -3.92776e-23 -1.43251e-21 -4.95274e-23 -2.15133e-22 -7.84621e-21 -2.71274e-22 -9.02953e-34 
6.4144e-21 -1.24857e-23 -1.03401e-21 -3.58788e-23 -7.74016e-23 -6.41007e-21 -2.22421e-22 1.56054e-33 
4.89037e-21 -8.47127e-24 -8.06152e-22 -9.1185e-24 -5.13832e-23 -4.88979e-21 -5.5309e-23 -5.84095e-34 
6.50008e-21 -6.07591e-23 -2.31565e-21 0 -1.70493e-22 -6.49785e-21 0 1.68149e-33 
5.55583e-21 -1.88569e-24 -3.95853e-21 0 -2.64658e-24 -5.55583e-21 0 3.79016e-34 
4.897e-21 -8.06441e-24 -1.19107e-21 -2.87647e-23 -3.31457e-23 -4.89546e-21 -1.18227e-22 -3.22655e-35 
1.18333e-20 -1.40801e-22 -2.16327e-21 0 -7.68569e-22 -1.18083e-20 0 -9.59861e-34 
4.4348e-20 0 -3.70453e-20 -3.70453e-20 0 -3.13588e-20 -3.13588e-20 2.20156e-32 
0 0 0 0 0 0 0 0 
0 0 0 0 0 0 0 0 
0 0 0 0 0 0 0 0 
0 0 0 0 0 0 0 0 
0 0 0 0 0 0 0 0 
0 0 0 0 0 0 0 0 
0 0 0 0 0 0 0 0 
0 0 0 0 0 0 0 0 
0 0 0 0 0 0 0 0 
0 0 0 0 0 0 0 0 
0 0 0 0 0 0 0 0 
0 0 0 0 0 0 0 0 
0 0 0 0 0 0 0 0 
0 0 0 0 0 0 0 0 
0 0 0 0 0 0 0 0 
0 0 0 0 0 0 0 0 
0 0 0 0 0 0 0 0 
0 0 0 0 0 0 0 0 
0 0 0 0 0 0 0 0 
0 0 0 0 0 0 0 0 
0 0 0 0 0 0 0 0 
0 0 0 0 0 0 0 0 
0 0 0 0 0 0 0 0 
0 0 0 0 0 0 0 0 
0 0 0 0 0 0 0 0 
0 0 0 0 0 0 0 0 
0 0 0 0 0 0 0 0 
0 0 0 0 0 0 0 0 
0 0 0 0 0 0 0 0 
0 0 0 0 0 0 0 0 
0 0 0 0 0 0 0 0 
0 0 0 0 0 0 0 0 
0 0 0 0 0 0 0 0 
0 0 0 0 0 0 0 0 
0 0 0 0 0 0 0 0 
0 0 0 0 0 0 0 0 
0 0 0 0 0 0 0 0 
0 0 0 0 0 0 0 0 
0 0 0 0 0 0 0 0 
0 0 0 0 0 0 0 0 
0 0 0 0 0 0 0 0 
0 0 0 0 0 0 0 0 
0 0 0 0 0 0 0 0 
0 0 0 0 0 0 0 0 
0 0 0 0 0 0 0 0 
0 0 0 0 0 0 0 0 
4.45865e-20 0 3.72446e-20 3.72446e-20 0 3.15274e-20 3.15274e-20 2.26824e-32 
5.0024e-20 -2.04702e-21 -3.10215e-22 -1.15521e-20 -8.72516e-21 -1.32225e-21 -4.92395e-20 -2.47342e-32 
5.60323e-20 -3.40325e-21 -1.24273e-21 -1.88722e-20 -9.92315e-21 -3.62353e-21 -5.50274e-20 -1.65767e-32 
4.25971e-20 -1.55882e-21 -2.74135e-22 -8.71809e-21 -7.49399e-21 -1.3179e-21 -4.1912e-20 -2.06815e-33 
8.96625e-20 -2.69318e-21 -2.14896e-21 -1.06472e-20 -2.15781e-20 -1.72178e-20 -8.53071e-20 -6.91871e-33 
1.03633e-19 -1.71798e-21 -1.01586e-21 -6.90852e-21 -2.47585e-20 -1.46399e-20 -9.95615e-20 -4.83457e-33 
1.00081e-19 -1.75984e-21 -6.96783e-22 -7.2338e-21 -2.35548e-20 -9.32615e-21 -9.68215e-20 9.2744e-33 
5.97876e-20 -9.79128e-22 -3.58223e-22 -4.4156e-21 -1.29027e-20 -4.72057e-21 -5.81876e-20 6.29658e-33 
4.26933e-20 -1.34073e-21 -3.75294e-22 -7.36468e-21 -7.63701e-21 -2.13773e-21 -4.19503e-20 -1.60978e-34 
4.65011e-20 -1.61976e-21 -4.33619e-22 -8.72414e-21 -8.47838e-21 -2.26972e-21 -4.56653e-20 -5.58017e-33 
4.76582e-20 -1.53183e-21 -6.75665e-22 -8.1432e-21 -8.78142e-21 -3.87333e-21 -4.66818e-20 1.8331e-33 
5.22281e-20 -1.74141e-21 -8.79326e-22 -8.89031e-21 -9.99255e-21 -5.04575e-21 -5.10144e-20 1.98204e-34 
1.41794e-19 -3.28352e-21 -2.89453e-21 -1.63166e-20 -2.75599e-20 -2.4295e-20 -1.36952e-19 4.40412e-32 
5.02426e-20 -1.8857e-21 -1.08995e-21 -9.4244e-21 -9.79473e-21 -5.66144e-21 -4.89524e-20 -3.32188e-33 
5.31857e-20 -1.15843e-21 -4.04373e-22 -5.7041e-21 -1.05598e-20 -3.68611e-21 -5.19963e-20 1.17931e-32 
5.36885e-20 -1.48549e-21 -8.01411e-22 -6.99963e-21 -1.10765e-20 -5.9757e-21 -5.21925e-20 -3.74625e-34 
7.79677e-20 -1.31035e-21 -6.21263e-22 -5.35068e-21 -1.8429e-20 -8.73756e-21 -7.52529e-20 -1.86883e-32 
6.1312e-20 -9.54272e-22 -4.19592e-22 -4.282e-21 -1.3276e-20 -5.83745e-21 -5.95721e-20 -1.65933e-32 
6.05205e-20 -1.86295e-21 -8.28806e-22 -8.4581e-21 -1.29588e-20 -5.76522e-21 -5.8835e-20 2.91236e-35 