ITEM: TIMESTEP
95
ITEM: NUMBER OF SURFS
6916
ITEM: BOX BOUNDS oo rr rr
-20 20
-20 20
-20 20
ITEM: SURFS f_save[1] f_save[2] f_save[3] f_save[4] f_save[5] f_save[6] f_save[7] f_save[8] 
6.06471e-19 -4.55043e-20 0 0 -6.06471e-19 0 0 0 
1.46743e-20 0 0 -4.40381e-20 0 0 -1.46743e-20 0 
0 0 0 0 0 0 0 0 
1.36908e-18 -3.33713e-20 0 0 -1.36908e-18 0 0 1.26976e-30 
1.30008e-18 -1.6251e-21 0 0 -1.30008e-18 0 0 0 
1.25508e-18 -1.56885e-21 0 0 -1.25508e-18 0 0 0 
1.16586e-18 -1.45733e-21 0 0 -1.16586e-18 0 0 0 
1.27788e-18 -3.11482e-20 0 0 -1.27788e-18 0 0 1.1763e-30 
1.20582e-18 -2.86382e-20 0 0 -1.20582e-18 0 0 0 
1.36066e-18 -3.23156e-20 0 0 -1.36066e-18 0 0 0 
1.37982e-18 -3.27709e-20 0 0 -1.37982e-18 0 0 0 
1.38212e-18 -3.28254e-20 0 0 -1.38212e-18 0 0 0 
1.43623e-18 -3.50082e-20 0 0 -1.43623e-18 0 0 0 
1.37597e-18 -3.26792e-20 0 0 -1.37597e-18 0 0 0 
1.32519e-18 -3.14731e-20 0 0 -1.32519e-18 0 0 0 
1.33648e-18 -3.25769e-20 0 0 -1.33648e-18 0 0 0 
1.31528e-18 -3.206e-20 0 0 -1.31528e-18 0 0 1.21549e-30 
1.38537e-18 -3.29028e-20 0 0 -1.38537e-18 0 0 1.28178e-30 
1.34304e-18 -3.18973e-20 0 0 -1.34304e-18 0 0 0 
1.32502e-18 -3.22974e-20 0 0 -1.32502e-18 0 0 1.22714e-30 
1.30624e-18 -3.10231e-20 0 0 -1.30624e-18 0 0 0 
1.28976e-18 -3.06318e-20 0 0 -1.28976e-18 0 0 0 
1.35379e-18 -3.29987e-20 0 0 -1.35379e-18 0 0 0 
1.35826e-18 -3.22588e-20 0 0 -1.35826e-18 0 0 0 
1.4109e-18 -3.35089e-20 0 0 -1.4109e-18 0 0 0 
1.3426e-18 -3.18868e-20 0 0 -1.3426e-18 0 0 0 
1.26474e-18 -1.58093e-21 0 0 -1.26474e-18 0 0 0 
1.25729e-18 -2.98606e-20 0 0 -1.25729e-18 0 0 0 
1.32502e-18 -3.14693e-20 0 0 -1.32502e-18 0 0 0 
1.28244e-18 -1.60306e-21 0 0 -1.28244e-18 0 0 0 
1.21286e-18 -2.88055e-20 0 0 -1.21286e-18 0 0 0 
1.36958e-18 -3.25276e-20 0 0 -1.36958e-18 0 0 0 
1.93952e-18 -2.42441e-21 0 0 -1.93952e-18 0 0 0 
1.31559e-18 -3.20675e-20 0 0 -1.31559e-18 0 0 1.20993e-30 
1.3599e-18 -3.22977e-20 0 0 -1.3599e-18 0 0 0 
1.59096e-18 -1.98872e-21 0 0 -1.59096e-18 0 0 0 
1.32962e-18 -3.24094e-20 0 0 -1.32962e-18 0 0 1.22386e-30 
1.29681e-18 -3.07993e-20 0 0 -1.29681e-18 0 0 0 
1.47755e-18 -1.84694e-21 0 0 -1.47755e-18 0 0 0 
1.22354e-18 -2.90591e-20 0 0 -1.22354e-18 0 0 0 
1.34179e-18 -3.27062e-20 0 0 -1.34179e-18 0 0 0 
1.54884e-18 -1.93606e-21 0 0 -1.54884e-18 0 0 0 
1.25089e-18 -2.97088e-20 0 0 -1.25089e-18 0 0 0 
1.31824e-18 -3.2132e-20 0 0 -1.31824e-18 0 0 0 
1.48533e-18 -1.85667e-21 0 0 -1.48533e-18 0 0 0 
1.38752e-18 -3.29538e-20 0 0 -1.38752e-18 0 0 0 
1.30916e-18 -3.10927e-20 0 0 -1.30916e-18 0 0 0 
1.64112e-18 -2.0514e-21 0 0 -1.64112e-18 0 0 0 
1.30152e-18 -1.62691e-21 0 0 -1.30152e-18 0 0 0 
1.33167e-18 -1.6646e-21 0 0 -1.33167e-18 0 0 0 
1.32803e-18 -3.15408e-20 0 0 -1.32803e-18 0 0 1.23184e-30 
1.32166e-18 -3.13894e-20 0 0 -1.32166e-18 0 0 0 
1.30622e-18 -3.10227e-20 0 0 -1.30622e-18 0 0 1.20005e-30 
1.6244e-18 -2.0305e-21 0 0 -1.6244e-18 0 0 0 
1.33606e-18 -3.17313e-20 0 0 -1.33606e-18 0 0 0 
1.31054e-18 -3.11254e-20 0 0 -1.31054e-18 0 0 0 
1.45408e-18 -3.45344e-20 0 0 -1.45408e-18 0 0 0 
1.69852e-18 -2.12316e-21 0 0 -1.69852e-18 0 0 0 
1.39178e-18 -3.30547e-20 0 0 -1.39178e-18 0 0 0 
1.33937e-18 -3.18101e-20 0 0 -1.33937e-18 0 0 0 
1.29185e-18 -3.06813e-20 0 0 -1.29185e-18 0 0 0 
1.63476e-18 -2.04346e-21 0 0 -1.63476e-18 0 0 0 
1.28015e-18 -3.04037e-20 0 0 -1.28015e-18 0 0 0 
1.18373e-18 -2.88535e-20 0 0 -1.18373e-18 0 0 1.09287e-30 
1.42036e-18 -1.77546e-21 0 0 -1.42036e-18 0 0 0 
1.24822e-18 -2.96453e-20 0 0 -1.24822e-18 0 0 0 
1.25083e-18 -2.97072e-20 0 0 -1.25083e-18 0 0 0 
1.59768e-18 -1.99711e-21 0 0 -1.59768e-18 0 0 0 
1.24939e-18 -2.96731e-20 0 0 -1.24939e-18 0 0 0 
1.33953e-18 -3.18139e-20 0 0 -1.33953e-18 0 0 0 
1.81869e-18 -2.27336e-21 0 0 -1.81869e-18 0 0 0 
1.36822e-18 -3.24952e-20 0 0 -1.36822e-18 0 0 0 
1.24723e-18 -2.96218e-20 0 0 -1.24723e-18 0 0 0 
1.32084e-18 -1.65105e-21 0 0 -1.32084e-18 0 0 0 
1.51237e-18 -1.89048e-21 0 0 -1.51237e-18 0 0 0 
1.35899e-18 -3.22761e-20 0 0 -1.35899e-18 0 0 0 
1.43061e-18 -3.39771e-20 0 0 -1.43061e-18 0 0 0 
1.7133e-18 -2.14163e-21 0 0 -1.7133e-18 0 0 0 
1.34101e-18 -3.1849e-20 0 0 -1.34101e-18 0 0 0 
1.30316e-18 -3.095e-20 0 0 -1.30316e-18 0 0 0 
1.29759e-18 -3.08177e-20 0 0 -1.29759e-18 0 0 0 
1.31433e-18 -3.12152e-20 0 0 -1.31433e-18 0 0 0 
1.31953e-18 -3.13388e-20 0 0 -1.31953e-18 0 0 0 
1.36098e-18 -3.31741e-20 0 0 -1.36098e-18 0 0 0 
1.33648e-18 -3.34122e-20 0 0 -1.33648e-18 0 0 0 
1.2891e-18 -3.22275e-20 0 0 -1.2891e-18 0 0 0 
1.23713e-18 -3.09283e-20 0 0 -1.23713e-18 0 0 0 
1.28974e-18 -3.22436e-20 0 0 -1.28974e-18 0 0 0 
1.31029e-18 -1.12685e-18 0 0 -1.31029e-18 0 0 1.2086e-30 
1.32746e-18 -6.30543e-19 0 0 -1.32746e-18 0 0 1.22356e-30 
1.31151e-18 -6.22967e-19 0 0 -1.31151e-18 0 0 0 
1.29984e-18 -6.17425e-19 0 0 -1.29984e-18 0 0 0 
1.30482e-18 -6.36101e-19 0 0 -1.30482e-18 0 0 0 
1.32004e-18 -1.13523e-18 0 0 -1.32004e-18 0 0 1.2182e-30 
1.32352e-18 -6.28674e-19 0 0 -1.32352e-18 0 0 0 
1.29793e-18 -6.16519e-19 0 0 -1.29793e-18 0 0 0 
1.31857e-18 -6.26321e-19 0 0 -1.31857e-18 0 0 0 
1.30092e-18 -6.34198e-19 0 0 -1.30092e-18 0 0 0 
1.3436e-18 -3.35899e-20 0 0 -1.3436e-18 0 0 1.23913e-30 
1.24132e-18 -3.10331e-20 0 0 -1.24132e-18 0 0 0 
1.38822e-18 -3.47055e-20 0 0 -1.38822e-18 0 0 1.27572e-30 
2.68736e-21 0 0 -1.57211e-20 0 0 -2.68736e-21 0 
0 0 0 0 0 0 0 0 
0 0 0 0 0 0 0 0 
0 0 0 0 0 0 0 0 
0 0 0 0 0 0 0 0 
0 0 0 0 0 0 0 0 
0 0 0 0 0 0 0 0 
0 0 0 0 0 0 0 0 
0 0 0 0 0 0 0 0 
0 0 0 0 0 0 0 0 
0 0 0 0 0 0 0 0 
0 0 0 0 0 0 0 0 
0 0 0 0 0 0 0 0 
9.21501e-22 2.18856e-23 0 0 9.21501e-22 0 0 0 
0 0 0 0 0 0 0 0 
0 0 0 0 0 0 0 0 
0 0 0 0 0 0 0 0 
0 0 0 0 0 0 0 0 
0 0 0 0 0 0 0 0 
0 0 0 0 0 0 0 0 
0 0 0 0 0 0 0 0 
0 0 0 0 0 0 0 0 
0 0 0 0 0 0 0 0 
0 0 0 0 0 0 0 0 
0 0 0 0 0 0 0 0 
0 0 0 0 0 0 0 0 
0 0 0 0 0 0 0 0 
0 0 0 0 0 0 0 0 
0 0 0 0 0 0 0 0 
0 0 0 0 0 0 0 0 
0 0 0 0 0 0 0 0 
0 0 0 0 0 0 0 0 
0 0 0 0 0 0 0 0 
0 0 0 0 0 0 0 0 
0 0 0 0 0 0 0 0 
0 0 0 0 0 0 0 0 
0 0 0 0 0 0 0 0 
0 0 0 0 0 0 0 0 
0 0 0 0 0 0 0 0 
0 0 0 0 0 0 0 0 
7.98603e-22 1.89668e-23 0 0 7.98603e-22 0 0 0 
0 0 0 0 0 0 0 0 
0 0 0 0 0 0 0 0 
0 0 0 0 0 0 0 0 
0 0 0 0 0 0 0 0 
0 0 0 0 0 0 0 0 
0 0 0 0 0 0 0 0 
0 0 0 0 0 0 0 0 
0 0 0 0 0 0 0 0 
0 0 0 0 0 0 0 0 
0 0 0 0 0 0 0 0 
0 0 0 0 0 0 0 0 
8.51261e-22 2.02175e-23 0 0 8.51261e-22 0 0 0 
0 0 0 0 0 0 0 0 
0 0 0 0 0 0 0 0 
0 0 0 0 0 0 0 0 
0 0 0 0 0 0 0 0 
0 0 0 0 0 0 0 0 
0 0 0 0 0 0 0 0 
0 0 0 0 0 0 0 0 
0 0 0 0 0 0 0 0 
0 0 0 0 0 0 0 0 
0 0 0 0 0 0 0 0 
0 0 0 0 0 0 0 0 
0 0 0 0 0 0 0 0 
0 0 0 0 0 0 0 0 
0 0 0 0 0 0 0 0 
0 0 0 0 0 0 0 0 
0 0 0 0 0 0 0 0 
0 0 0 0 0 0 0 0 
0 0 0 0 0 0 0 0 
0 0 0 0 0 0 0 0 
0 0 0 0 0 0 0 0 
0 0 0 0 0 0 0 0 
0 0 0 0 0 0 0 0 
0 0 0 0 0 0 0 0 
0 0 0 0 0 0 0 0 
0 0 0 0 0 0 0 0 
0 0 0 0 0 0 0 0 
0 0 0 0 0 0 0 0 
0 0 0 0 0 0 0 0 
0 0 0 0 0 0 0 0 
0 0 0 0 0 0 0 0 
2.65813e-19 -2.79102e-19 -3.41828e-19 -3.41828e-19 -1.32906e-19 -1.62776e-19 -1.62776e-19 -8.79469e-32 
2.06412e-21 0 0 -3.0524e-19 0 0 -2.06412e-21 0 
9.52816e-22 0 1.93027e-19 -1.93027e-19 0 6.73742e-22 -6.73742e-22 -4.67949e-35 
2.67662e-19 -2.81043e-19 3.44206e-19 3.44206e-19 -1.33831e-19 1.63909e-19 1.63909e-19 -8.92879e-32 
2.07716e-21 0 0 3.07168e-19 0 0 2.07716e-21 0 
2.05643e-21 0 -1.87581e-19 1.87581e-19 0 -1.45412e-21 1.45412e-21 1.24908e-34 
2.32632e-21 0 -1.36089e-20 0 0 -2.32632e-21 0 0 
2.32926e-21 0 1.36262e-20 0 0 2.32926e-21 0 0 
2.25666e-21 0 0 -1.2863e-20 0 0 -2.25666e-21 0 
2.31734e-21 0 0 1.32089e-20 0 0 2.31734e-21 0 
2.30995e-21 0 0 -1.31667e-20 0 0 -2.30995e-21 0 
2.26839e-21 0 0 1.29298e-20 0 0 2.26839e-21 0 
2.349e-21 0 0 1.33893e-20 0 0 2.349e-21 0 
2.31087e-21 0 0 -1.31719e-20 0 0 -2.31087e-21 0 
2.25296e-21 0 0 -1.28418e-20 0 0 -2.25296e-21 0 
2.22527e-21 0 0 1.26841e-20 0 0 2.22527e-21 0 
2.26848e-21 0 0 -1.29304e-20 0 0 -2.26848e-21 0 
2.23308e-21 0 0 1.27285e-20 0 0 2.23308e-21 0 
2.36265e-21 0 -1.34671e-20 0 0 -2.36265e-21 0 0 
2.30601e-21 0 1.31442e-20 0 0 2.30601e-21 0 0 
2.29145e-21 0 0 -1.30613e-20 0 0 -2.29145e-21 0 
2.36455e-21 0 0 1.34779e-20 0 0 2.36455e-21 0 
2.39402e-21 0 -1.36459e-20 0 0 -2.39402e-21 0 0 
2.44395e-21 0 1.39305e-20 0 0 2.44395e-21 0 0 
2.3187e-21 0 -1.32166e-20 0 0 -2.3187e-21 0 0 
2.31356e-21 0 1.31873e-20 0 0 2.31356e-21 0 0 
2.31139e-21 0 1.35216e-20 0 0 2.31139e-21 0 0 
2.37017e-21 0 -1.38655e-20 0 0 -2.37017e-21 0 0 
2.26563e-21 0 1.32539e-20 0 0 2.26563e-21 0 0 
2.24517e-21 0 -1.31342e-20 0 0 -2.24517e-21 0 0 
2.2565e-21 0 -1.2862e-20 0 0 -2.2565e-21 0 0 
2.30978e-21 0 1.31657e-20 0 0 2.30978e-21 0 0 
2.29545e-21 0 1.34284e-20 0 0 2.29545e-21 0 0 
2.35029e-21 0 -6.8746e-21 0 0 -2.35029e-21 0 0 
2.28521e-21 0 0 6.68425e-21 0 0 2.28521e-21 0 
2.3045e-21 0 0 -1.31357e-20 0 0 -2.3045e-21 0 
2.79622e-21 0 0 1.59385e-20 0 0 2.79622e-21 0 
2.27003e-21 0 0 1.32797e-20 0 0 2.27003e-21 0 
2.2344e-21 0 0 -1.30713e-20 0 0 -2.2344e-21 0 
2.22833e-21 0 -1.27015e-20 0 0 -2.22833e-21 0 0 
2.27063e-21 0 1.29426e-20 0 0 2.27063e-21 0 0 
2.31548e-21 0 -1.31982e-20 0 0 -2.31548e-21 0 0 
2.23502e-21 0 1.27396e-20 0 0 2.23502e-21 0 0 
2.31137e-21 0 0 1.31748e-20 0 0 2.31137e-21 0 
2.30402e-21 0 0 -1.31329e-20 0 0 -2.30402e-21 0 
2.24101e-21 0 -1.27738e-20 0 0 -2.24101e-21 0 0 
2.25341e-21 0 1.28445e-20 0 0 2.25341e-21 0 0 
2.33226e-21 0 0 1.32939e-20 0 0 2.33226e-21 0 
2.24725e-21 0 0 -1.28093e-20 0 0 -2.24725e-21 0 
2.23972e-21 0 -1.27664e-20 0 0 -2.23972e-21 0 0 
2.28679e-21 0 1.30347e-20 0 0 2.28679e-21 0 0 
2.26527e-21 0 0 1.29121e-20 0 0 2.26527e-21 0 
2.68921e-21 0 0 -1.53285e-20 0 0 -2.68921e-21 0 
2.34028e-21 0 1.33396e-20 0 0 2.34028e-21 0 0 
2.30951e-21 0 -1.31642e-20 0 0 -2.30951e-21 0 0 
2.26957e-21 0 1.29366e-20 0 0 2.26957e-21 0 0 
2.32085e-21 0 -1.32288e-20 0 0 -2.32085e-21 0 0 
2.24604e-21 0 0 -1.28024e-20 0 0 -2.24604e-21 0 
2.31498e-21 0 0 1.31954e-20 0 0 2.31498e-21 0 
2.30412e-21 0 0 1.31335e-20 0 0 2.30412e-21 0 
2.72058e-21 0 0 -1.55073e-20 0 0 -2.72058e-21 0 
2.2521e-21 0 0 1.2837e-20 0 0 2.2521e-21 0 
2.76935e-21 0 0 -1.57853e-20 0 0 -2.76935e-21 0 
2.24481e-21 0 -1.27954e-20 0 0 -2.24481e-21 0 0 
2.79087e-21 0 1.5908e-20 0 0 2.79087e-21 0 0 
2.33727e-21 0 -1.33225e-20 0 0 -2.33727e-21 0 0 
2.28019e-21 0 1.29971e-20 0 0 2.28019e-21 0 0 
2.72202e-21 0 1.59238e-20 0 0 2.72202e-21 0 0 
2.2452e-21 0 0 -1.31344e-20 0 0 -2.2452e-21 0 
2.3352e-21 0 -1.36609e-20 0 0 -2.3352e-21 0 0 
2.28439e-21 0 1.33637e-20 0 0 2.28439e-21 0 0 
2.28789e-21 0 1.33841e-20 0 0 2.28789e-21 0 0 
2.29344e-21 0 -1.34166e-20 0 0 -2.29344e-21 0 0 
2.29705e-21 0 0 -1.34378e-20 0 0 -2.29705e-21 0 
2.25338e-21 0 0 1.31823e-20 0 0 2.25338e-21 0 
2.25782e-21 0 0 1.32082e-20 0 0 2.25782e-21 0 
2.19245e-21 0 0 -1.28258e-20 0 0 -2.19245e-21 0 
2.75397e-21 0 -1.56976e-20 0 0 -2.75397e-21 0 0 
2.19193e-21 0 1.2494e-20 0 0 2.19193e-21 0 0 
2.25694e-21 0 0 -1.32031e-20 0 0 -2.25694e-21 0 
2.33398e-21 0 0 1.36538e-20 0 0 2.33398e-21 0 
2.22956e-21 0 -6.52147e-21 0 0 -2.22956e-21 0 0 
2.78067e-21 0 -1.62669e-20 0 0 -2.78067e-21 0 0 
2.80367e-21 0 1.64014e-20 0 0 2.80367e-21 0 0 
2.74854e-21 0 -1.60789e-20 0 0 -2.74854e-21 0 0 
2.78972e-21 0 1.63199e-20 0 0 2.78972e-21 0 0 
2.69015e-21 0 -1.53338e-20 0 0 -2.69015e-21 0 0 
2.27178e-21 0 1.29491e-20 0 0 2.27178e-21 0 0 
2.70466e-21 0 0 -1.58223e-20 0 0 -2.70466e-21 0 
2.67965e-21 0 0 1.56759e-20 0 0 2.67965e-21 0 
2.32481e-21 0 1.32514e-20 0 0 2.32481e-21 0 0 
2.83128e-21 0 -1.61383e-20 0 0 -2.83128e-21 0 0 
2.77259e-21 0 0 1.58037e-20 0 0 2.77259e-21 0 
2.76263e-21 0 0 -1.5747e-20 0 0 -2.76263e-21 0 
2.76956e-21 0 0 1.6202e-20 0 0 2.76956e-21 0 
2.31381e-21 0 6.76788e-21 0 0 2.31381e-21 0 0 
2.27507e-21 0 -1.29679e-20 0 0 -2.27507e-21 0 0 
2.83249e-21 0 1.61452e-20 0 0 2.83249e-21 0 0 
2.77583e-21 0 1.58222e-20 0 0 2.77583e-21 0 0 
2.70161e-21 0 -1.53992e-20 0 0 -2.70161e-21 0 0 
2.69762e-21 0 1.53764e-20 0 0 2.69762e-21 0 0 
2.74012e-21 0 -1.56187e-20 0 0 -2.74012e-21 0 0 
2.64195e-21 0 0 -1.50591e-20 0 0 -2.64195e-21 0 
2.7143e-21 0 0 1.54715e-20 0 0 2.7143e-21 0 
2.2329e-21 0 1.27275e-20 0 0 2.2329e-21 0 0 
2.7472e-21 0 -1.5659e-20 0 0 -2.7472e-21 0 0 
2.75425e-21 0 0 -1.56992e-20 0 0 -2.75425e-21 0 
2.72755e-21 0 0 1.5547e-20 0 0 2.72755e-21 0 
2.68721e-21 0 1.53171e-20 0 0 2.68721e-21 0 0 
2.29055e-21 0 -1.30561e-20 0 0 -2.29055e-21 0 0 
2.71357e-21 0 -1.54674e-20 0 0 -2.71357e-21 0 0 
2.63326e-21 0 1.50096e-20 0 0 2.63326e-21 0 0 
2.71796e-21 0 0 -1.54924e-20 0 0 -2.71796e-21 0 
2.65728e-21 0 0 1.51465e-20 0 0 2.65728e-21 0 
2.71173e-21 0 0 -1.54569e-20 0 0 -2.71173e-21 0 
2.81092e-21 0 0 1.60222e-20 0 0 2.81092e-21 0 
2.72079e-21 0 0 1.55085e-20 0 0 2.72079e-21 0 
2.71181e-21 0 0 -1.54573e-20 0 0 -2.71181e-21 0 
2.85484e-21 0 -1.62726e-20 0 0 -2.85484e-21 0 0 
2.72664e-21 0 1.55418e-20 0 0 2.72664e-21 0 0 
2.69978e-21 0 0 1.53887e-20 0 0 2.69978e-21 0 
2.83192e-21 0 0 -1.61419e-20 0 0 -2.83192e-21 0 
2.72705e-21 0 0 -1.55442e-20 0 0 -2.72705e-21 0 
2.24206e-21 0 0 1.27797e-20 0 0 2.24206e-21 0 
2.72963e-21 0 1.55589e-20 0 0 2.72963e-21 0 0 
2.70985e-21 0 -1.54461e-20 0 0 -2.70985e-21 0 0 
2.73444e-21 0 -1.55863e-20 0 0 -2.73444e-21 0 0 
2.75127e-21 0 1.56822e-20 0 0 2.75127e-21 0 0 
2.74189e-21 0 0 1.56288e-20 0 0 2.74189e-21 0 
2.73582e-21 0 0 -1.55942e-20 0 0 -2.73582e-21 0 
2.78184e-21 0 1.58565e-20 0 0 2.78184e-21 0 0 
2.81041e-21 0 -1.60193e-20 0 0 -2.81041e-21 0 0 
2.7232e-21 0 0 1.55222e-20 0 0 2.7232e-21 0 
2.72913e-21 0 0 -1.5556e-20 0 0 -2.72913e-21 0 
1.9489e-21 -2.64146e-24 0 -1.38859e-21 -3.7073e-24 0 -1.94889e-21 2.11621e-34 
7.41122e-21 -9.08566e-23 -3.05287e-23 -1.36539e-21 -4.91951e-22 -1.653e-22 -7.39303e-21 3.56752e-34 
3.6106e-21 -2.5879e-23 -1.13843e-23 -6.67773e-22 -1.398e-22 -6.1499e-23 -3.60737e-21 1.91653e-34 
6.96178e-21 -8.57332e-23 -5.73552e-23 -1.25984e-21 -4.72174e-22 -3.15883e-22 -6.93856e-21 -6.14092e-34 
1.58154e-21 -1.88222e-25 -5.65594e-28 -3.95385e-22 -7.52888e-25 -2.26237e-27 -1.58154e-21 -3.34504e-34 
1.3379e-21 -1.89546e-24 -9.94e-24 -3.2136e-22 -7.88737e-24 -4.13622e-23 -1.33724e-21 -1.95081e-34 
2.39511e-21 -4.234e-24 -1.3397e-23 -3.86096e-22 -2.62479e-23 -8.30524e-23 -2.39353e-21 4.63439e-34 
2.66842e-21 -8.70349e-24 -2.09896e-23 -4.82165e-22 -4.81138e-23 -1.16033e-22 -2.66546e-21 6.30399e-35 
4.7161e-21 -3.3307e-23 -1.487e-23 -8.72233e-22 -1.79931e-22 -8.03306e-23 -4.71198e-21 1.01305e-33 
2.72938e-21 -1.52583e-23 -2.58179e-23 -4.90864e-22 -8.46841e-23 -1.4329e-22 -2.7243e-21 -2.81288e-34 
3.88021e-21 -3.70848e-23 -2.8356e-23 -7.05147e-22 -2.03621e-22 -1.55694e-22 -3.87173e-21 -3.06108e-34 
1.37263e-21 -2.13777e-24 -5.19952e-24 -4.48899e-22 -6.53632e-24 -1.58977e-23 -1.37252e-21 -6.04356e-34 
2.60114e-21 -7.54142e-24 -4.85004e-24 -4.28785e-22 -4.57386e-23 -2.94154e-23 -2.60057e-21 -6.14775e-35 
2.10493e-21 -2.89341e-24 -9.99489e-24 -2.52213e-22 -2.41275e-23 -8.33451e-23 -2.10314e-21 2.53577e-34 
1.695e-21 -2.94109e-24 -4.7835e-24 -2.7681e-22 -1.80055e-23 -2.92849e-23 -1.69465e-21 -9.30841e-35 
7.22817e-22 -2.29259e-25 0 -1.35528e-23 -1.22254e-23 0 -7.22714e-22 1.08107e-33 
2.50772e-21 -8.10418e-24 1.31504e-23 -4.58818e-22 -4.42692e-23 7.18345e-23 -2.5063e-21 7.61346e-35 
2.24582e-21 -8.22983e-24 0 -8.00074e-22 -2.31001e-23 0 -2.2457e-21 2.98743e-34 
1.86825e-21 -2.38128e-25 5.99521e-24 -4.50061e-22 -9.88408e-25 2.48845e-23 -1.86808e-21 9.46662e-35 
1.50136e-21 -2.12704e-24 1.11544e-23 -3.60622e-22 -8.851e-24 4.64155e-23 -1.50061e-21 4.0598e-34 
4.92709e-21 -4.71457e-23 4.05922e-23 -8.91633e-22 -2.59892e-22 2.23765e-22 -4.91514e-21 1.60648e-34 
3.47637e-21 -2.45834e-23 1.27026e-23 -6.41789e-22 -1.33037e-22 6.8742e-23 -3.47315e-21 3.49702e-34 
4.00556e-21 -3.4659e-23 4.39083e-23 -7.1637e-22 -1.93207e-22 2.44767e-22 -3.99341e-21 3.24909e-34 
2.60648e-21 -1.30352e-23 1.64368e-23 -4.75411e-22 -7.13967e-23 9.00284e-23 -2.60394e-21 -2.776e-34 
1.52095e-21 -2.96053e-24 8.50739e-24 -2.45179e-22 -1.8353e-23 5.27393e-23 -1.51992e-21 1.41386e-34 
2.2204e-21 -3.84625e-24 4.14012e-24 -3.66021e-22 -2.33298e-23 2.51122e-23 -2.22013e-21 3.07418e-35 
2.93171e-21 -2.7404e-23 0 -1.04442e-21 -7.6897e-23 0 -2.9307e-21 3.51988e-34 
1.67513e-21 -5.68552e-25 0 -1.19353e-21 -7.97968e-25 0 -1.67513e-21 1.40488e-34 
2.14339e-21 -3.52974e-24 1.25901e-23 -5.21326e-22 -1.45077e-23 5.1747e-23 -2.14271e-21 3.28089e-34 
5.90418e-21 -7.02525e-23 0 -1.07936e-21 -3.83476e-22 0 -5.89171e-21 -5.60219e-34 
2.04723e-21 -2.77473e-24 1.45865e-21 0 -3.89436e-24 2.04722e-21 0 -7.82463e-35 
6.84441e-21 -8.39078e-23 1.26096e-21 -2.81938e-23 -4.54327e-22 6.82761e-21 -1.52658e-22 -6.17455e-35 
3.20735e-21 -2.29887e-23 5.93193e-22 -1.01129e-23 -1.24187e-22 3.20448e-21 -5.46305e-23 -5.47581e-34 
8.30997e-21 -1.02336e-22 1.50382e-21 -6.84624e-23 -5.63614e-22 8.28226e-21 -3.77056e-22 -1.46545e-34 
1.6338e-21 -1.94441e-25 4.08449e-22 -5.84282e-28 -7.77766e-25 1.6338e-21 -2.33713e-27 -8.10918e-35 
1.62267e-21 -2.2989e-24 3.8976e-22 -1.20557e-23 -9.56616e-24 1.62186e-21 -5.01659e-23 1.15994e-34 
1.92817e-21 -3.40855e-24 3.10823e-22 -1.07852e-23 -2.11307e-23 1.92689e-21 -6.68606e-23 3.14196e-35 
2.18412e-21 -7.12387e-24 3.94656e-22 -1.71801e-23 -3.93815e-23 2.1817e-21 -9.49736e-23 -9.80621e-35 
4.04403e-21 -2.85605e-23 7.47935e-22 -1.27509e-23 -1.5429e-22 4.04049e-21 -6.8883e-23 -4.79144e-35 
2.52633e-21 -1.41232e-23 4.54346e-22 -2.38972e-23 -7.83841e-23 2.52163e-21 -1.3263e-22 -2.67224e-34 
4.01256e-21 -3.83497e-23 7.29198e-22 -2.93232e-23 -2.10566e-22 4.00379e-21 -1.61004e-22 1.04355e-34 
1.60634e-21 -2.50176e-24 5.2533e-22 -6.08481e-24 -7.64921e-24 1.60621e-21 -1.86045e-23 3.48667e-34 
1.99525e-21 -5.78477e-24 3.28907e-22 -3.72031e-24 -3.50846e-23 1.99481e-21 -2.25636e-23 -3.84235e-35 
2.14509e-21 -2.94861e-24 2.57025e-22 -1.01856e-23 -2.45878e-23 2.14327e-21 -8.49352e-23 -2.64143e-34 
1.9213e-21 -3.33376e-24 3.13768e-22 -5.42215e-24 -2.04094e-23 1.9209e-21 -3.31947e-23 4.34392e-34 
6.17129e-22 -1.95738e-25 1.15712e-23 0 -1.04378e-23 6.17041e-22 0 0 
2.14689e-21 -6.93808e-24 3.92799e-22 1.12582e-23 -3.78993e-23 2.14567e-21 6.14983e-23 -4.84493e-35 
2.64486e-21 -9.69212e-24 9.42233e-22 0 -2.72045e-23 2.64472e-21 0 1.60041e-34 
1.38781e-21 -1.76891e-25 3.34322e-22 4.45347e-24 -7.34228e-25 1.38769e-21 1.84852e-23 1.78814e-34 
1.5154e-21 -2.14694e-24 3.63996e-22 1.12588e-23 -8.93381e-24 1.51465e-21 4.68498e-23 -4.11253e-34 
4.08889e-21 -3.91252e-23 7.39947e-22 3.36866e-23 -2.15678e-22 4.07897e-21 1.85698e-22 2.93357e-34 
3.22188e-21 -2.27837e-23 5.94806e-22 1.17727e-23 -1.23298e-22 3.21889e-21 6.37097e-23 5.62266e-34 
3.74402e-21 -3.2396e-23 6.69594e-22 4.10413e-23 -1.80592e-22 3.73266e-21 2.28785e-22 1.41265e-34 
3.06853e-21 -1.53459e-23 5.59689e-22 1.93506e-23 -8.40534e-23 3.06555e-21 1.05988e-22 1.8044e-34 
1.82874e-21 -3.55965e-24 2.94795e-22 1.0229e-23 -2.20671e-23 1.8275e-21 6.3412e-23 5.96965e-34 
2.30067e-21 -3.9853e-24 3.79253e-22 4.28979e-24 -2.41732e-23 2.30039e-21 2.60201e-23 -2.61305e-34 
4.0006e-21 -3.73954e-23 1.42521e-21 0 -1.04933e-22 3.99923e-21 0 3.55543e-34 
1.76793e-21 -6.00048e-25 1.25965e-21 0 -8.42172e-25 1.76793e-21 0 1.24483e-35 
1.54769e-21 -2.54875e-24 3.76438e-22 9.09108e-24 -1.04757e-23 1.54721e-21 3.73654e-23 -3.74959e-34 
6.83421e-21 -8.13187e-23 1.24938e-21 0 -4.43881e-22 6.81977e-21 0 -3.52731e-34 
2.01195e-21 -2.72692e-24 0 1.43351e-21 -3.82725e-24 0 2.01195e-21 -2.95202e-34 
6.89581e-21 -8.45379e-23 2.84055e-23 1.27043e-21 -4.57738e-22 1.53804e-22 6.87888e-21 -7.8897e-34 
4.12134e-21 -2.95398e-23 1.29947e-23 7.62235e-22 -1.59576e-22 7.01985e-23 4.11766e-21 -5.81805e-34 
7.80952e-21 -9.6173e-23 6.43394e-23 1.41325e-21 -5.29672e-22 3.54348e-22 7.78347e-21 -1.32588e-34 
1.54624e-21 -1.84022e-25 5.52972e-28 3.86561e-22 -7.36087e-25 2.21189e-27 1.54624e-21 3.14231e-34 
1.68273e-21 -2.38399e-24 1.25019e-23 4.04186e-22 -9.92023e-24 5.20227e-23 1.68189e-21 3.16348e-34 
2.3349e-21 -4.12755e-24 1.30602e-23 3.76389e-22 -2.5588e-23 8.09644e-23 2.33336e-21 -2.43502e-34 
2.21716e-21 -7.23165e-24 1.74401e-23 4.00627e-22 -3.99773e-23 9.64104e-23 2.2147e-21 -7.35465e-34 
4.11403e-21 -2.90549e-23 1.29716e-23 7.60882e-22 -1.56961e-22 7.00755e-23 4.11044e-21 1.36898e-35 
2.76376e-21 -1.54505e-23 2.61431e-23 4.97046e-22 -8.57507e-23 1.45095e-22 2.75861e-21 -5.62576e-34 
4.49961e-21 -4.30047e-23 3.28825e-23 8.1771e-22 -2.36125e-22 1.80547e-22 4.48978e-21 -4.73077e-34 
1.55608e-21 -2.42348e-24 5.89441e-24 5.08892e-22 -7.40986e-24 1.80224e-23 1.55596e-21 2.092e-34 
2.22972e-21 -6.46458e-24 4.15751e-24 3.67559e-22 -3.92076e-23 2.52152e-23 2.22924e-21 -6.83938e-34 
1.81837e-21 -2.4995e-24 8.63419e-24 2.17877e-22 -2.08428e-23 7.19985e-23 1.81682e-21 -8.45257e-35 
2.49768e-21 -4.33387e-24 7.04878e-24 4.07897e-22 -2.65322e-23 4.3153e-23 2.49716e-21 -6.2056e-35 
1.42316e-21 -4.51391e-25 0 2.66843e-23 -2.40707e-23 0 1.42296e-21 -6.75667e-34 
2.65674e-21 -8.58578e-24 -1.39319e-23 4.86083e-22 -4.68999e-23 -7.61033e-23 2.65524e-21 -2.56089e-34 
2.32479e-21 -8.51921e-24 0 8.28207e-22 -2.39123e-23 0 2.32467e-21 -2.38283e-34 
1.67814e-21 -2.13897e-25 -5.38514e-24 4.04263e-22 -8.87829e-25 -2.23523e-23 1.67799e-21 2.62962e-35 
1.81589e-21 -2.57265e-24 -1.34912e-23 4.36171e-22 -1.07053e-23 -5.61395e-23 1.81499e-21 -4.21798e-35 
4.30714e-21 -4.12137e-23 -3.54848e-23 7.79444e-22 -2.27191e-22 -1.9561e-22 4.2967e-21 2.93357e-34 
3.88919e-21 -2.75027e-23 -1.4211e-23 7.18002e-22 -1.48835e-22 -7.69052e-23 3.88558e-21 -8.22828e-35 
4.1011e-21 -3.54857e-23 -4.49556e-23 7.33456e-22 -1.97815e-22 -2.50605e-22 4.08866e-21 9.04094e-34 
2.91508e-21 -1.45785e-23 -1.83829e-23 5.31699e-22 -7.98499e-23 -1.00687e-22 2.91224e-21 -3.74759e-34 
2.133e-21 -4.15189e-24 -1.19309e-23 3.43842e-22 -2.57385e-23 -7.39622e-23 2.13156e-21 5.81255e-34 
2.0313e-21 -3.5187e-24 -3.78753e-24 3.3485e-22 -2.13429e-23 -2.29736e-23 2.03106e-21 -9.99109e-35 
3.28768e-21 -3.07314e-23 0 1.17124e-21 -8.6234e-23 0 3.28655e-21 8.07084e-34 
1.91946e-21 -6.51476e-25 0 1.36761e-21 -9.14353e-25 0 1.91946e-21 -2.31183e-35 
1.78676e-21 -2.94244e-24 -1.04953e-23 4.34585e-22 -1.20938e-23 -4.31371e-23 1.7862e-21 3.12466e-35 
7.13486e-21 -8.48961e-23 0 1.30434e-21 -4.63408e-22 0 7.1198e-21 -3.7348e-34 
2.02717e-21 -2.74755e-24 -1.44436e-21 0 -3.8562e-24 -2.02717e-21 0 1.77833e-35 
7.56559e-21 -9.2749e-23 -1.39383e-21 3.11645e-23 -5.02198e-22 -7.54702e-21 1.68743e-22 3.77334e-34 
3.32416e-21 -2.38259e-23 -6.14797e-22 1.04812e-23 -1.2871e-22 -3.32118e-21 5.66201e-23 9.58266e-35 
7.17479e-21 -8.83564e-23 -1.29839e-21 5.91101e-23 -4.86622e-22 -7.15086e-21 3.25548e-22 -1.39566e-34 
1.61794e-21 -1.92554e-25 -4.04484e-22 5.7861e-28 -7.70215e-25 -1.61794e-21 2.31444e-27 2.5848e-34 
1.45483e-21 -2.06112e-24 -3.49445e-22 1.08087e-23 -8.57669e-24 -1.45411e-21 4.4977e-23 5.27247e-35 
1.95822e-21 -3.46168e-24 -3.15668e-22 1.09533e-23 -2.146e-23 -1.95693e-21 6.79029e-23 1.57098e-35 
2.21793e-21 -7.23414e-24 -4.00765e-22 1.74461e-23 -3.99911e-23 -2.21547e-21 9.64436e-23 3.85244e-34 
3.67998e-21 -2.59895e-23 -6.80605e-22 1.16031e-23 -1.40401e-22 -3.67677e-21 6.26822e-23 -1.71123e-34 
2.8689e-21 -1.60383e-23 -5.15955e-22 2.71376e-23 -8.90129e-23 -2.86356e-21 1.50614e-22 -9.84508e-35 
4.74633e-21 -4.53627e-23 -8.62546e-22 3.46855e-23 -2.49072e-22 -4.73596e-21 1.90447e-22 6.95701e-35 
1.52204e-21 -2.37047e-24 -4.97762e-22 5.76549e-24 -7.24779e-24 -1.52192e-21 1.76282e-23 2.13074e-34 
2.32248e-21 -6.73349e-24 -3.82848e-22 4.33045e-24 -4.08385e-23 -2.32197e-21 2.62641e-23 6.14775e-35 
1.8412e-21 -2.53088e-24 -2.20612e-22 8.74259e-24 -2.11044e-23 -1.83963e-21 7.29024e-23 -8.45257e-35 
1.97006e-21 -3.41837e-24 -3.21731e-22 5.55977e-24 -2.09274e-23 -1.96966e-21 3.40372e-23 -1.31869e-34 
3.42935e-22 -1.0877e-25 -6.43005e-24 0 -5.80025e-24 -3.42886e-22 0 6.75667e-34 
1.9329e-21 -6.24656e-24 -3.53649e-22 -1.01361e-23 -3.41219e-23 -1.93181e-21 -5.53687e-23 -4.42965e-34 
2.3829e-21 -8.73215e-24 -8.48908e-22 0 -2.451e-23 -2.38277e-21 0 1.60041e-34 
1.91355e-21 -2.43903e-25 -4.60974e-22 -6.14058e-24 -1.01238e-24 -1.91338e-21 -2.5488e-23 -3.10295e-34 
1.72053e-21 -2.43755e-24 -4.13266e-22 -1.27827e-23 -1.01431e-23 -1.71968e-21 -5.31914e-23 2.42534e-34 
6.03376e-21 -5.77351e-23 -1.0919e-21 -4.97096e-23 -3.18265e-22 -6.01912e-21 -2.74025e-22 6.84499e-34 
3.20007e-21 -2.26295e-23 -5.90779e-22 -1.1693e-23 -1.22463e-22 -3.1971e-21 -6.32784e-23 6.44548e-34 
3.10775e-21 -2.68905e-23 -5.55801e-22 -3.40666e-23 -1.49901e-22 -3.09832e-21 -1.89905e-22 1.13012e-33 
3.24967e-21 -1.62518e-23 -5.92727e-22 -2.04929e-23 -8.90151e-23 -3.24651e-21 -1.12244e-22 2.082e-34 
2.41442e-21 -4.69969e-24 -3.89208e-22 -1.3505e-23 -2.91345e-23 -2.4128e-21 -8.37208e-23 7.8548e-34 
2.15336e-21 -3.73013e-24 -3.54971e-22 -4.01512e-24 -2.26254e-23 -2.15311e-21 -2.43541e-23 -1.6908e-34 
3.53965e-21 -3.30867e-23 -1.261e-21 0 -9.2843e-23 -3.53843e-21 0 2.66658e-34 
1.70729e-21 -5.79466e-25 -1.21644e-21 0 -8.13286e-25 -1.70729e-21 0 -7.82465e-35 
1.72535e-21 -2.84132e-24 -4.19649e-22 -1.01346e-23 -1.16782e-23 -1.72481e-21 -4.16545e-23 -5.20777e-35 
7.75898e-21 -9.23223e-23 -1.41844e-21 0 -5.03945e-22 -7.74259e-21 0 -8.02289e-34 
2.29611e-21 0 -1.91801e-21 -1.91801e-21 0 -1.62359e-21 -1.62359e-21 1.23988e-33 
0 0 0 0 0 0 0 0 
0 0 0 0 0 0 0 0 
0 0 0 0 0 0 0 0 
0 0 0 0 0 0 0 0 
0 0 0 0 0 0 0 0 
0 0 0 0 0 0 0 0 
0 0 0 0 0 0 0 0 
0 0 0 0 0 0 0 0 
0 0 0 0 0 0 0 0 
0 0 0 0 0 0 0 0 
0 0 0 0 0 0 0 0 
0 0 0 0 0 0 0 0 
0 0 0 0 0 0 0 0 
0 0 0 0 0 0 0 0 
0 0 0 0 0 0 0 0 
0 0 0 0 0 0 0 0 
0 0 0 0 0 0 0 0 
0 0 0 0 0 0 0 0 
0 0 0 0 0 0 0 0 
0 0 0 0 0 0 0 0 
0 0 0 0 0 0 0 0 
0 0 0 0 0 0 0 0 
0 0 0 0 0 0 0 0 
0 0 0 0 0 0 0 0 
0 0 0 0 0 0 0 0 
0 0 0 0 0 0 0 0 
0 0 0 0 0 0 0 0 
0 0 0 0 0 0 0 0 
0 0 0 0 0 0 0 0 
0 0 0 0 0 0 0 0 
0 0 0 0 0 0 0 0 
0 0 0 0 0 0 0 0 
0 0 0 0 0 0 0 0 
0 0 0 0 0 0 0 0 
0 0 0 0 0 0 0 0 
0 0 0 0 0 0 0 0 
0 0 0 0 0 0 0 0 
0 0 0 0 0 0 0 0 
0 0 0 0 0 0 0 0 
0 0 0 0 0 0 0 0 
0 0 0 0 0 0 0 0 
0 0 0 0 0 0 0 0 
0 0 0 0 0 0 0 0 
0 0 0 0 0 0 0 0 
0 0 0 0 0 0 0 0 
0 0 0 0 0 0 0 0 
2.40337e-21 0 2.00761e-21 2.00761e-21 0 1.69944e-21 1.69944e-21 1.35572e-33 
1.58204e-20 -6.47382e-22 -9.81075e-23 -3.65343e-21 -2.75938e-21 -4.18171e-22 -1.55723e-20 -6.85886e-33 
1.83948e-20 -1.11725e-21 -4.07974e-22 -6.19554e-21 -3.25766e-21 -1.18956e-21 -1.80649e-20 -4.77326e-33 
1.77169e-20 -6.4834e-22 -1.14017e-22 -3.62601e-21 -3.11688e-21 -5.48136e-22 -1.74319e-20 -8.5279e-34 
3.752e-20 -1.12698e-21 -8.9925e-22 -4.45541e-21 -9.02952e-21 -7.20492e-21 -3.56974e-20 -3.99983e-33 
5.18871e-20 -8.6016e-22 -5.08619e-22 -3.45896e-21 -1.23961e-20 -7.32993e-21 -4.98486e-20 -5.3137e-33 
5.19528e-20 -9.13548e-22 -3.61705e-22 -3.75512e-21 -1.22275e-20 -4.84128e-21 -5.02608e-20 -1.8655e-34 
3.09173e-20 -5.06326e-22 -1.85244e-22 -2.28339e-21 -6.67223e-21 -2.4411e-21 -3.00899e-20 5.57679e-33 
1.53018e-20 -4.80535e-22 -1.3451e-22 -2.63959e-21 -2.7372e-21 -7.66189e-22 -1.50355e-20 3.17564e-34 
1.99451e-20 -6.94739e-22 -1.85986e-22 -3.74192e-21 -3.63651e-21 -9.73517e-22 -1.95866e-20 -1.65806e-33 
1.85111e-20 -5.94984e-22 -2.62437e-22 -3.16292e-21 -3.41081e-21 -1.50445e-21 -1.81318e-20 3.84969e-34 
1.79809e-20 -5.99525e-22 -3.02731e-22 -3.06072e-21 -3.4402e-21 -1.73713e-21 -1.7563e-20 5.81651e-35 
3.64129e-20 -8.4321e-22 -7.43319e-22 -4.19012e-21 -7.0774e-21 -6.23898e-21 -3.51694e-20 1.13369e-32 
1.8722e-20 -7.02671e-22 -4.0615e-22 -3.51183e-21 -3.64982e-21 -2.10963e-21 -1.82412e-20 -2.52067e-33 
2.65903e-20 -5.79158e-22 -2.02167e-22 -2.85178e-21 -5.27938e-21 -1.84288e-21 -2.59957e-20 6.42181e-33 
2.24043e-20 -6.19899e-22 -3.3443e-22 -2.92096e-21 -4.62225e-21 -2.49367e-21 -2.178e-20 -6.70793e-34 
3.70123e-20 -6.22039e-22 -2.94922e-22 -2.54003e-21 -8.74847e-21 -4.14783e-21 -3.57235e-20 -7.12806e-33 
3.01611e-20 -4.69434e-22 -2.06409e-22 -2.10644e-21 -6.53086e-21 -2.87161e-21 -2.93052e-20 -6.41644e-33 
2.75768e-20 -8.4887e-22 -3.77654e-22 -3.85402e-21 -5.90479e-21 -2.62698e-21 -2.68088e-20 -3.43736e-34 
2.36276e-20 -6.44276e-22 -4.37887e-22 -2.90764e-21 -5.05707e-21 -3.43707e-21 -2.28227e-20 1.8399e-33 
2.67372e-20 -6.21949e-22 -5.94617e-22 -2.86395e-21 -5.56082e-21 -5.31645e-21 -2.56065e-20 4.48617e-33 
2.44756e-20 -6.48275e-22 -5.54336e-22 -2.78028e-21 -5.45595e-21 -4.66535e-21 -2.33992e-20 7.4646e-34 
2.79654e-20 -8.42431e-22 -5.01369e-22 -3.64072e-21 -6.2484e-21 -3.71871e-21 -2.70036e-20 7.42435e-34 
3.70865e-20 -6.29237e-22 -3.03176e-22 -2.5951e-21 -8.68338e-21 -4.18379e-21 -3.58121e-20 2.64027e-33 
3.28435e-20 -1.0288e-21 -6.4132e-22 -4.23556e-21 -7.66953e-21 -4.78095e-21 -3.15756e-20 3.80664e-33 
2.60507e-20 -7.16026e-22 -6.42622e-22 -2.91891e-21 -6.06919e-21 -5.44701e-21 -2.47413e-20 2.77089e-33 
2.2026e-20 -6.34568e-22 -2.93129e-22 -3.44784e-21 -3.97302e-21 -1.83528e-21 -2.15869e-20 5.72765e-33 
3.89135e-20 -8.60699e-22 -5.22861e-22 -4.57522e-21 -7.14934e-21 -4.34311e-21 -3.80037e-20 -2.73643e-34 
2.35379e-20 -5.19268e-22 -1.27904e-22 -2.65228e-21 -4.51738e-21 -1.1127e-21 -2.30736e-20 1.51012e-33 
3.46548e-20 -5.6877e-22 -5.73759e-22 -2.60759e-21 -7.22032e-21 -7.28366e-21 -3.31024e-20 1.11307e-32 
4.2213e-20 -5.98974e-22 -7.33417e-22 -2.22738e-21 -1.04468e-20 -1.27917e-20 -3.88481e-20 -2.12151e-33 
2.92647e-20 -8.32175e-22 -7.65059e-22 -3.28329e-21 -7.01334e-21 -6.44771e-21 -2.76707e-20 8.96989e-34 
2.03516e-20 -7.36949e-22 -5.65606e-22 -3.53818e-21 -4.09996e-21 -3.14671e-21 -1.96844e-20 -3.69378e-33 
2.14538e-20 -6.39063e-22 3.52083e-22 -3.33939e-21 -4.01103e-21 2.20982e-21 -2.09594e-20 -2.1472e-33 
1.89796e-20 -6.36451e-22 1.34938e-22 -3.5656e-21 -3.33279e-21 7.06608e-22 -1.86713e-20 -3.17152e-33 
2.08829e-20 -7.27615e-22 2.39834e-22 -3.90012e-21 -3.82291e-21 1.26009e-21 -2.04913e-20 1.36472e-33 
2.22759e-20 -4.74914e-22 1.69729e-22 -2.39528e-21 -4.32191e-21 1.5446e-21 -2.1798e-20 -2.30615e-35 
2.81986e-20 -8.48486e-22 3.85921e-22 -3.93838e-21 -5.91179e-21 2.68889e-21 -2.74405e-20 2.64845e-33 
3.45455e-20 -5.07204e-22 2.55447e-22 -2.15052e-21 -7.8776e-21 3.96746e-21 -3.34006e-20 6.57286e-33 
2.91335e-20 -1.22941e-21 3.59302e-22 -6.9318e-21 -5.08105e-21 1.48496e-21 -2.86486e-20 8.87089e-33 
1.9622e-20 -8.08467e-22 1.69582e-22 -4.51313e-21 -3.45758e-21 7.25253e-22 -1.93013e-20 -1.15421e-33 
3.45023e-20 -6.85197e-22 7.52944e-22 -2.63406e-21 -8.37156e-21 9.19927e-21 -3.21823e-20 -6.93531e-33 