ITEM: TIMESTEP
285
ITEM: NUMBER OF SURFS
6916
ITEM: BOX BOUNDS oo rr rr
-20 20
-20 20
-20 20
ITEM: SURFS f_save[1] f_save[2] f_save[3] f_save[4] f_save[5] f_save[6] f_save[7] f_save[8] 
2.95412e-18 -2.21652e-19 0 0 -2.95412e-18 0 0 0 
2.62889e-19 0 0 -7.88939e-19 0 0 -2.62889e-19 0 
1.23132e-21 9.23806e-23 0 0 1.23132e-21 0 0 2.58954e-34 
1.45798e-18 -3.55382e-20 0 0 -1.45798e-18 0 0 1.3512e-30 
1.45292e-18 -1.81615e-21 0 0 -1.45292e-18 0 0 0 
1.34765e-18 -1.68457e-21 0 0 -1.34765e-18 0 0 0 
1.61337e-18 -2.01671e-21 0 0 -1.61337e-18 0 0 0 
1.45091e-18 -3.53659e-20 0 0 -1.45091e-18 0 0 1.33805e-30 
1.4349e-18 -3.40787e-20 0 0 -1.4349e-18 0 0 0 
1.48616e-18 -3.52962e-20 0 0 -1.48616e-18 0 0 0 
1.53152e-18 -3.63738e-20 0 0 -1.53152e-18 0 0 0 
1.52188e-18 -3.61447e-20 0 0 -1.52188e-18 0 0 0 
1.50578e-18 -3.67034e-20 0 0 -1.50578e-18 0 0 0 
1.47469e-18 -3.50239e-20 0 0 -1.47469e-18 0 0 0 
1.46891e-18 -3.48866e-20 0 0 -1.46891e-18 0 0 0 
1.47265e-18 -3.5896e-20 0 0 -1.47265e-18 0 0 0 
1.48058e-18 -3.60892e-20 0 0 -1.48058e-18 0 0 1.36531e-30 
1.48684e-18 -3.53126e-20 0 0 -1.48684e-18 0 0 1.37198e-30 
1.4658e-18 -3.48127e-20 0 0 -1.4658e-18 0 0 0 
1.48449e-18 -3.61843e-20 0 0 -1.48449e-18 0 0 1.36922e-30 
1.45974e-18 -3.46688e-20 0 0 -1.45974e-18 0 0 0 
1.51244e-18 -3.59203e-20 0 0 -1.51244e-18 0 0 0 
1.46084e-18 -3.5608e-20 0 0 -1.46084e-18 0 0 0 
1.48513e-18 -3.52721e-20 0 0 -1.48513e-18 0 0 0 
1.54687e-18 -3.67382e-20 0 0 -1.54687e-18 0 0 0 
1.5046e-18 -3.57342e-20 0 0 -1.5046e-18 0 0 0 
1.54323e-18 -1.92904e-21 0 0 -1.54323e-18 0 0 0 
1.44076e-18 -3.42181e-20 0 0 -1.44076e-18 0 0 0 
1.46473e-18 -3.47873e-20 0 0 -1.46473e-18 0 0 0 
1.56873e-18 -1.96091e-21 0 0 -1.56873e-18 0 0 0 
1.39664e-18 -3.31702e-20 0 0 -1.39664e-18 0 0 0 
1.41994e-18 -3.37234e-20 0 0 -1.41994e-18 0 0 0 
1.64274e-18 -2.05343e-21 0 0 -1.64274e-18 0 0 0 
1.51311e-18 -3.68821e-20 0 0 -1.51311e-18 0 0 1.39254e-30 
1.47804e-18 -3.51037e-20 0 0 -1.47804e-18 0 0 0 
1.5743e-18 -1.96788e-21 0 0 -1.5743e-18 0 0 0 
1.44965e-18 -3.53352e-20 0 0 -1.44965e-18 0 0 1.33223e-30 
1.42798e-18 -3.39147e-20 0 0 -1.42798e-18 0 0 0 
1.46222e-18 -1.82779e-21 0 0 -1.46222e-18 0 0 0 
1.42477e-18 -3.38383e-20 0 0 -1.42477e-18 0 0 0 
1.43813e-18 -3.50545e-20 0 0 -1.43813e-18 0 0 0 
1.69876e-18 -2.12346e-21 0 0 -1.69876e-18 0 0 0 
1.45352e-18 -3.45212e-20 0 0 -1.45352e-18 0 0 0 
1.4551e-18 -3.54681e-20 0 0 -1.4551e-18 0 0 0 
1.44687e-18 -1.80859e-21 0 0 -1.44687e-18 0 0 0 
1.51276e-18 -3.59281e-20 0 0 -1.51276e-18 0 0 0 
1.44803e-18 -3.43907e-20 0 0 -1.44803e-18 0 0 0 
1.60957e-18 -2.01197e-21 0 0 -1.60957e-18 0 0 0 
1.28596e-18 -1.60747e-21 0 0 -1.28596e-18 0 0 0 
1.35414e-18 -1.69268e-21 0 0 -1.35414e-18 0 0 0 
1.4655e-18 -3.48057e-20 0 0 -1.4655e-18 0 0 1.35385e-30 
1.48677e-18 -3.53108e-20 0 0 -1.48677e-18 0 0 0 
1.46252e-18 -3.4735e-20 0 0 -1.46252e-18 0 0 1.34487e-30 
1.64223e-18 -2.05279e-21 0 0 -1.64223e-18 0 0 0 
1.47551e-18 -3.50434e-20 0 0 -1.47551e-18 0 0 0 
1.53711e-18 -3.65064e-20 0 0 -1.53711e-18 0 0 0 
1.55332e-18 -3.68914e-20 0 0 -1.55332e-18 0 0 0 
1.52227e-18 -1.90284e-21 0 0 -1.52227e-18 0 0 0 
1.53211e-18 -3.63875e-20 0 0 -1.53211e-18 0 0 0 
1.48936e-18 -3.53722e-20 0 0 -1.48936e-18 0 0 0 
1.50198e-18 -3.56719e-20 0 0 -1.50198e-18 0 0 0 
1.68391e-18 -2.10491e-21 0 0 -1.68391e-18 0 0 0 
1.48618e-18 -3.5297e-20 0 0 -1.48618e-18 0 0 0 
1.42725e-18 -3.47891e-20 0 0 -1.42725e-18 0 0 1.31873e-30 
1.54803e-18 -1.93505e-21 0 0 -1.54803e-18 0 0 0 
1.41849e-18 -3.36892e-20 0 0 -1.41849e-18 0 0 0 
1.50715e-18 -3.57947e-20 0 0 -1.50715e-18 0 0 0 
1.61031e-18 -2.0129e-21 0 0 -1.61031e-18 0 0 0 
1.45611e-18 -3.45827e-20 0 0 -1.45611e-18 0 0 0 
1.43354e-18 -3.40465e-20 0 0 -1.43354e-18 0 0 0 
1.45054e-18 -1.81317e-21 0 0 -1.45054e-18 0 0 0 
1.45845e-18 -3.46383e-20 0 0 -1.45845e-18 0 0 0 
1.42399e-18 -3.38198e-20 0 0 -1.42399e-18 0 0 0 
1.40005e-18 -1.75006e-21 0 0 -1.40005e-18 0 0 0 
1.61983e-18 -2.0248e-21 0 0 -1.61983e-18 0 0 0 
1.51271e-18 -3.59269e-20 0 0 -1.51271e-18 0 0 0 
1.49542e-18 -3.55162e-20 0 0 -1.49542e-18 0 0 0 
1.50559e-18 -1.88199e-21 0 0 -1.50559e-18 0 0 0 
1.46529e-18 -3.48007e-20 0 0 -1.46529e-18 0 0 0 
1.4589e-18 -3.46489e-20 0 0 -1.4589e-18 0 0 0 
1.48429e-18 -3.52519e-20 0 0 -1.48429e-18 0 0 0 
1.4948e-18 -3.55016e-20 0 0 -1.4948e-18 0 0 0 
1.49531e-18 -3.55137e-20 0 0 -1.49531e-18 0 0 0 
1.49356e-18 -3.64056e-20 0 0 -1.49356e-18 0 0 0 
1.45732e-18 -3.6433e-20 0 0 -1.45732e-18 0 0 0 
1.48598e-18 -3.71494e-20 0 0 -1.48598e-18 0 0 0 
1.42886e-18 -3.57214e-20 0 0 -1.42886e-18 0 0 0 
1.42802e-18 -3.57006e-20 0 0 -1.42802e-18 0 0 0 
1.47335e-18 -1.26708e-18 0 0 -1.47335e-18 0 0 1.35886e-30 
1.47448e-18 -7.00378e-19 0 0 -1.47448e-18 0 0 1.35869e-30 
1.46938e-18 -6.97955e-19 0 0 -1.46938e-18 0 0 0 
1.46671e-18 -6.96685e-19 0 0 -1.46671e-18 0 0 0 
1.46889e-18 -7.16083e-19 0 0 -1.46889e-18 0 0 0 
1.47707e-18 -1.27028e-18 0 0 -1.47707e-18 0 0 1.36153e-30 
1.48317e-18 -7.04508e-19 0 0 -1.48317e-18 0 0 0 
1.47592e-18 -7.01063e-19 0 0 -1.47592e-18 0 0 0 
1.47575e-18 -7.0098e-19 0 0 -1.47575e-18 0 0 0 
1.47768e-18 -7.20368e-19 0 0 -1.47768e-18 0 0 0 
1.48186e-18 -3.70466e-20 0 0 -1.48186e-18 0 0 1.36506e-30 
1.43255e-18 -3.58137e-20 0 0 -1.43255e-18 0 0 0 
1.51477e-18 -3.78692e-20 0 0 -1.51477e-18 0 0 1.39559e-30 
4.68544e-21 0 0 -2.74098e-20 0 0 -4.68544e-21 0 
2.40908e-20 3.01135e-23 0 0 2.40908e-20 0 0 0 
5.3675e-20 1.27478e-21 0 0 5.3675e-20 0 0 0 
9.68439e-21 1.21056e-23 0 0 9.68439e-21 0 0 0 
3.5799e-20 8.50225e-22 0 0 3.5799e-20 0 0 0 
7.82175e-20 1.85767e-21 0 0 7.82175e-20 0 0 0 
2.06181e-20 4.8968e-22 0 0 2.06181e-20 0 0 0 
6.51094e-20 1.54636e-21 0 0 6.51094e-20 0 0 0 
2.58359e-20 6.13602e-22 0 0 2.58359e-20 0 0 0 
7.29261e-20 1.73199e-21 0 0 7.29261e-20 0 0 0 
7.19591e-20 8.77001e-22 0 0 7.19591e-20 0 0 0 
2.25971e-20 5.36682e-22 0 0 2.25971e-20 0 0 2.06285e-32 
3.4203e-20 8.12322e-22 0 0 3.4203e-20 0 0 0 
2.88295e-20 6.84699e-22 0 0 2.88295e-20 0 0 0 
6.95962e-20 1.65291e-21 0 0 6.95962e-20 0 0 0 
3.32199e-20 7.88973e-22 0 0 3.32199e-20 0 0 0 
4.25853e-20 1.0114e-21 0 0 4.25853e-20 0 0 0 
5.92241e-20 1.40657e-21 0 0 5.92241e-20 0 0 0 
2.82142e-20 3.52678e-23 0 0 2.82142e-20 0 0 0 
4.97406e-20 1.18134e-21 0 0 4.97406e-20 0 0 0 
2.8002e-20 6.65047e-22 0 0 2.8002e-20 0 0 0 
3.23861e-20 4.04826e-23 0 0 3.23861e-20 0 0 0 
3.29993e-20 7.83732e-22 0 0 3.29993e-20 0 0 0 
4.28834e-20 1.01848e-21 0 0 4.28834e-20 0 0 0 
1.23187e-20 1.53984e-23 0 0 1.23187e-20 0 0 0 
1.9599e-20 4.65478e-22 0 0 1.9599e-20 0 0 0 
1.78054e-20 4.22878e-22 0 0 1.78054e-20 0 0 0 
4.65751e-20 5.82189e-23 0 0 4.65751e-20 0 0 0 
1.59771e-20 1.99714e-23 0 0 1.59771e-20 0 0 0 
2.89416e-20 6.87363e-22 0 0 2.89416e-20 0 0 0 
2.70241e-20 6.41822e-22 0 0 2.70241e-20 0 0 0 
4.88775e-20 1.16084e-21 0 0 4.88775e-20 0 0 0 
4.07065e-20 9.66779e-22 0 0 4.07065e-20 0 0 0 
0 0 0 0 0 0 0 0 
2.60715e-20 6.19199e-22 0 0 2.60715e-20 0 0 0 
2.57329e-20 6.11155e-22 0 0 2.57329e-20 0 0 0 
1.90517e-20 2.38147e-23 0 0 1.90517e-20 0 0 0 
5.94213e-20 7.42767e-23 0 0 5.94213e-20 0 0 0 
3.86444e-20 9.17803e-22 0 0 3.86444e-20 0 0 0 
3.81484e-20 9.06024e-22 0 0 3.81484e-20 0 0 0 
3.81945e-20 9.0712e-22 0 0 3.81945e-20 0 0 0 
1.50708e-20 1.88385e-23 0 0 1.50708e-20 0 0 0 
3.02936e-20 7.19473e-22 0 0 3.02936e-20 0 0 0 
3.4521e-20 8.19875e-22 0 0 3.4521e-20 0 0 0 
4.63921e-20 5.79902e-23 0 0 4.63921e-20 0 0 0 
7.43698e-20 1.76628e-21 0 0 7.43698e-20 0 0 0 
3.86137e-20 9.17075e-22 0 0 3.86137e-20 0 0 0 
5.47341e-20 1.29993e-21 0 0 5.47341e-20 0 0 0 
2.48392e-20 3.1049e-23 0 0 2.48392e-20 0 0 0 
1.17882e-20 2.87339e-22 0 0 1.17882e-20 0 0 0 
3.88629e-20 4.85789e-23 0 0 3.88629e-20 0 0 0 
3.62705e-20 8.84092e-22 0 0 3.62705e-20 0 0 3.32165e-32 
5.66594e-20 1.34567e-21 0 0 5.66594e-20 0 0 0 
5.49244e-20 1.33878e-21 0 0 5.49244e-20 0 0 0 
6.17226e-20 1.50449e-21 0 0 6.17226e-20 0 0 5.72148e-32 
4.2714e-20 1.01446e-21 0 0 4.2714e-20 0 0 0 
0 0 0 0 0 0 0 0 
1.67883e-20 4.09216e-22 0 0 1.67883e-20 0 0 0 
3.65803e-20 4.57258e-23 0 0 3.65803e-20 0 0 0 
3.97241e-20 4.96553e-23 0 0 3.97241e-20 0 0 0 
7.78198e-20 9.7275e-23 0 0 7.78198e-20 0 0 0 
6.83466e-20 8.54335e-23 0 0 6.83466e-20 0 0 0 
2.9438e-21 3.67977e-24 0 0 2.9438e-21 0 0 0 
4.75159e-21 5.93953e-24 0 0 4.75159e-21 0 0 0 
2.5547e-20 6.22709e-22 0 0 2.5547e-20 0 0 0 
4.91775e-20 1.16797e-21 0 0 4.91775e-20 0 0 0 
5.34902e-20 6.68629e-23 0 0 5.34902e-20 0 0 0 
4.34681e-20 1.05953e-21 0 0 4.34681e-20 0 0 0 
4.91318e-20 1.16689e-21 0 0 4.91318e-20 0 0 0 
3.83855e-20 4.7982e-23 0 0 3.83855e-20 0 0 0 
4.29059e-20 1.04583e-21 0 0 4.29059e-20 0 0 0 
1.98752e-20 4.72038e-22 0 0 1.98752e-20 0 0 1.78899e-32 
2.18184e-20 5.31825e-22 0 0 2.18184e-20 0 0 0 
1.60683e-20 3.81624e-22 0 0 1.60683e-20 0 0 1.44222e-32 
3.49811e-20 8.30804e-22 0 0 3.49811e-20 0 0 0 
7.11954e-20 1.6909e-21 0 0 7.11954e-20 0 0 0 
5.88897e-20 1.39863e-21 0 0 5.88897e-20 0 0 0 
2.4898e-20 5.91329e-22 0 0 2.4898e-20 0 0 0 
1.95007e-20 4.63143e-22 0 0 1.95007e-20 0 0 1.78188e-32 
4.81317e-20 1.17321e-21 0 0 4.81317e-20 0 0 4.34916e-32 
2.25673e-20 5.50079e-22 0 0 2.25673e-20 0 0 0 
8.85966e-20 5.53731e-23 0 0 8.85966e-20 0 0 0 
4.95657e-20 6.04082e-22 0 0 4.95657e-20 0 0 0 
3.69685e-19 -3.88166e-19 -4.75404e-19 -4.75404e-19 -1.84842e-19 -2.26385e-19 -2.26385e-19 -1.24564e-31 
4.17642e-21 0 0 -6.17603e-19 0 0 -4.17642e-21 0 
2.8267e-21 0 5.7265e-19 -5.7265e-19 0 1.99878e-21 -1.99878e-21 -1.47745e-34 
3.69258e-19 -3.87718e-19 4.74856e-19 4.74856e-19 -1.84629e-19 2.26124e-19 2.26124e-19 -1.2522e-31 
4.17006e-21 0 0 6.16663e-19 0 0 4.17006e-21 0 
3.18819e-21 0 -2.90817e-19 2.90817e-19 0 -2.25439e-21 2.25439e-21 1.95509e-34 
5.38548e-21 0 -3.15051e-20 0 0 -5.38548e-21 0 0 
5.37757e-21 0 3.14588e-20 0 0 5.37757e-21 0 0 
5.14542e-21 0 0 -2.93289e-20 0 0 -5.14542e-21 0 
5.30561e-21 0 0 3.0242e-20 0 0 5.30561e-21 0 
5.19154e-21 0 0 -2.95918e-20 0 0 -5.19154e-21 0 
5.26169e-21 0 0 2.99917e-20 0 0 5.26169e-21 0 
5.4774e-21 0 0 3.12212e-20 0 0 5.4774e-21 0 
5.40603e-21 0 0 -3.08143e-20 0 0 -5.40603e-21 0 
4.9878e-21 0 0 -2.84304e-20 0 0 -4.9878e-21 0 
4.91455e-21 0 0 2.80129e-20 0 0 4.91455e-21 0 
5.21122e-21 0 0 -2.97039e-20 0 0 -5.21122e-21 0 
5.19101e-21 0 0 2.95888e-20 0 0 5.19101e-21 0 
5.42984e-21 0 -3.09501e-20 0 0 -5.42984e-21 0 0 
5.19709e-21 0 2.96234e-20 0 0 5.19709e-21 0 0 
5.71134e-21 0 0 -3.25547e-20 0 0 -5.71134e-21 0 
5.81718e-21 0 0 3.31579e-20 0 0 5.81718e-21 0 
5.74076e-21 0 -3.27223e-20 0 0 -5.74076e-21 0 0 
5.69052e-21 0 3.2436e-20 0 0 5.69052e-21 0 0 
5.54995e-21 0 -3.16347e-20 0 0 -5.54995e-21 0 0 
5.61394e-21 0 3.19995e-20 0 0 5.61394e-21 0 0 
5.99489e-21 0 3.50701e-20 0 0 5.99489e-21 0 0 
6.03122e-21 0 -3.52826e-20 0 0 -6.03122e-21 0 0 
5.70269e-21 0 3.33607e-20 0 0 5.70269e-21 0 0 
5.64033e-21 0 -3.29959e-20 0 0 -5.64033e-21 0 0 
5.28186e-21 0 -3.01066e-20 0 0 -5.28186e-21 0 0 
5.1078e-21 0 2.91145e-20 0 0 5.1078e-21 0 0 
4.76662e-21 0 2.78847e-20 0 0 4.76662e-21 0 0 
4.89367e-21 0 -1.4314e-20 0 0 -4.89367e-21 0 0 
4.77696e-21 0 0 1.39726e-20 0 0 4.77696e-21 0 
6.75337e-21 0 0 -3.84942e-20 0 0 -6.75337e-21 0 
6.4658e-21 0 0 3.6855e-20 0 0 6.4658e-21 0 
5.51397e-21 0 0 3.22568e-20 0 0 5.51397e-21 0 
5.4119e-21 0 0 -3.16596e-20 0 0 -5.4119e-21 0 
5.35657e-21 0 -3.05324e-20 0 0 -5.35657e-21 0 0 
5.29137e-21 0 3.01608e-20 0 0 5.29137e-21 0 0 
5.7037e-21 0 -3.25111e-20 0 0 -5.7037e-21 0 0 
5.60778e-21 0 3.19643e-20 0 0 5.60778e-21 0 0 
5.38353e-21 0 0 3.06861e-20 0 0 5.38353e-21 0 
5.54838e-21 0 0 -3.16257e-20 0 0 -5.54838e-21 0 
5.84871e-21 0 -3.33376e-20 0 0 -5.84871e-21 0 0 
5.69328e-21 0 3.24517e-20 0 0 5.69328e-21 0 0 
5.48816e-21 0 0 3.12825e-20 0 0 5.48816e-21 0 
5.63688e-21 0 0 -3.21302e-20 0 0 -5.63688e-21 0 
5.07665e-21 0 -2.89369e-20 0 0 -5.07665e-21 0 0 
4.97824e-21 0 2.8376e-20 0 0 4.97824e-21 0 0 
6.01607e-21 0 0 3.42916e-20 0 0 6.01607e-21 0 
6.38063e-21 0 0 -3.63696e-20 0 0 -6.38063e-21 0 
5.81325e-21 0 3.31355e-20 0 0 5.81325e-21 0 0 
5.81521e-21 0 -3.31467e-20 0 0 -5.81521e-21 0 0 
5.33697e-21 0 3.04207e-20 0 0 5.33697e-21 0 0 
5.20546e-21 0 -2.96711e-20 0 0 -5.20546e-21 0 0 
5.89369e-21 0 0 -3.3594e-20 0 0 -5.89369e-21 0 
5.78517e-21 0 0 3.29755e-20 0 0 5.78517e-21 0 
5.82387e-21 0 0 3.3196e-20 0 0 5.82387e-21 0 
5.60699e-21 0 0 -3.19598e-20 0 0 -5.60699e-21 0 
6.60066e-21 0 0 3.76238e-20 0 0 6.60066e-21 0 
5.86138e-21 0 0 -3.34099e-20 0 0 -5.86138e-21 0 
5.70018e-21 0 -3.2491e-20 0 0 -5.70018e-21 0 0 
5.55977e-21 0 3.16907e-20 0 0 5.55977e-21 0 0 
5.41198e-21 0 -3.08483e-20 0 0 -5.41198e-21 0 0 
5.31542e-21 0 3.02979e-20 0 0 5.31542e-21 0 0 
4.56014e-21 0 2.66768e-20 0 0 4.56014e-21 0 0 
4.73558e-21 0 0 -2.77032e-20 0 0 -4.73558e-21 0 
5.27984e-21 0 -3.08871e-20 0 0 -5.27984e-21 0 0 
5.33178e-21 0 3.11909e-20 0 0 5.33178e-21 0 0 
5.85981e-21 0 3.42799e-20 0 0 5.85981e-21 0 0 
5.82613e-21 0 -3.40828e-20 0 0 -5.82613e-21 0 0 
5.31529e-21 0 0 -3.10944e-20 0 0 -5.31529e-21 0 
5.39183e-21 0 0 3.15422e-20 0 0 5.39183e-21 0 
5.62446e-21 0 0 3.29031e-20 0 0 5.62446e-21 0 
5.57545e-21 0 0 -3.26164e-20 0 0 -5.57545e-21 0 
6.03558e-21 0 -3.44028e-20 0 0 -6.03558e-21 0 0 
6.35773e-21 0 3.62391e-20 0 0 6.35773e-21 0 0 
5.88995e-21 0 0 -3.44562e-20 0 0 -5.88995e-21 0 
6.01357e-21 0 0 3.51794e-20 0 0 6.01357e-21 0 
4.57666e-21 0 -1.33867e-20 0 0 -4.57666e-21 0 0 
5.74488e-21 0 -3.36076e-20 0 0 -5.74488e-21 0 0 
5.68377e-21 0 3.32501e-20 0 0 5.68377e-21 0 0 
5.17975e-21 0 -3.03015e-20 0 0 -5.17975e-21 0 0 
5.19825e-21 0 3.04098e-20 0 0 5.19825e-21 0 0 
5.28826e-21 0 -3.01431e-20 0 0 -5.28826e-21 0 0 
5.51798e-21 0 3.14525e-20 0 0 5.51798e-21 0 0 
5.51638e-21 0 0 -3.22708e-20 0 0 -5.51638e-21 0 
5.5228e-21 0 0 3.23084e-20 0 0 5.5228e-21 0 
6.1163e-21 0 3.48629e-20 0 0 6.1163e-21 0 0 
6.00494e-21 0 -3.42281e-20 0 0 -6.00494e-21 0 0 
5.24706e-21 0 0 2.99082e-20 0 0 5.24706e-21 0 
5.17561e-21 0 0 -2.9501e-20 0 0 -5.17561e-21 0 
4.65862e-21 0 0 2.72529e-20 0 0 4.65862e-21 0 
4.78676e-21 0 1.40013e-20 0 0 4.78676e-21 0 0 
5.63112e-21 0 -3.20974e-20 0 0 -5.63112e-21 0 0 
5.39716e-21 0 3.07638e-20 0 0 5.39716e-21 0 0 
5.42579e-21 0 3.0927e-20 0 0 5.42579e-21 0 0 
5.50446e-21 0 -3.13754e-20 0 0 -5.50446e-21 0 0 
5.05275e-21 0 2.88007e-20 0 0 5.05275e-21 0 0 
5.22169e-21 0 -2.97636e-20 0 0 -5.22169e-21 0 0 
5.09381e-21 0 0 -2.90347e-20 0 0 -5.09381e-21 0 
5.15345e-21 0 0 2.93747e-20 0 0 5.15345e-21 0 
6.04563e-21 0 3.44601e-20 0 0 6.04563e-21 0 0 
5.78169e-21 0 -3.29557e-20 0 0 -5.78169e-21 0 0 
5.18773e-21 0 0 -2.95701e-20 0 0 -5.18773e-21 0 
5.24216e-21 0 0 2.98803e-20 0 0 5.24216e-21 0 
5.09004e-21 0 2.90132e-20 0 0 5.09004e-21 0 0 
5.21431e-21 0 -2.97215e-20 0 0 -5.21431e-21 0 0 
5.41577e-21 0 -3.08699e-20 0 0 -5.41577e-21 0 0 
5.18329e-21 0 2.95447e-20 0 0 5.18329e-21 0 0 
5.24976e-21 0 0 -2.99236e-20 0 0 -5.24976e-21 0 
5.11376e-21 0 0 2.91484e-20 0 0 5.11376e-21 0 
5.393e-21 0 0 -3.07401e-20 0 0 -5.393e-21 0 
5.34952e-21 0 0 3.04923e-20 0 0 5.34952e-21 0 
5.01256e-21 0 0 2.85716e-20 0 0 5.01256e-21 0 
5.20745e-21 0 0 -2.96824e-20 0 0 -5.20745e-21 0 
4.96057e-21 0 -2.82752e-20 0 0 -4.96057e-21 0 0 
4.95221e-21 0 2.82276e-20 0 0 4.95221e-21 0 0 
4.91803e-21 0 0 2.80327e-20 0 0 4.91803e-21 0 
5.02411e-21 0 0 -2.86374e-20 0 0 -5.02411e-21 0 
5.14925e-21 0 0 -2.93507e-20 0 0 -5.14925e-21 0 
5.41431e-21 0 0 3.08616e-20 0 0 5.41431e-21 0 
5.35687e-21 0 3.05341e-20 0 0 5.35687e-21 0 0 
5.3081e-21 0 -3.02562e-20 0 0 -5.3081e-21 0 0 
5.03276e-21 0 -2.86867e-20 0 0 -5.03276e-21 0 0 
5.05291e-21 0 2.88016e-20 0 0 5.05291e-21 0 0 
5.21282e-21 0 0 2.97131e-20 0 0 5.21282e-21 0 
5.25524e-21 0 0 -2.99549e-20 0 0 -5.25524e-21 0 
5.3915e-21 0 3.07316e-20 0 0 5.3915e-21 0 0 
5.53944e-21 0 -3.15748e-20 0 0 -5.53944e-21 0 0 
5.17962e-21 0 0 2.95239e-20 0 0 5.17962e-21 0 
5.16656e-21 0 0 -2.94494e-20 0 0 -5.16656e-21 0 
6.38208e-21 -8.65002e-24 0 -4.54723e-21 -1.21404e-23 0 -6.38206e-21 -2.43038e-34 
1.31663e-20 -1.61409e-22 -5.42351e-23 -2.42566e-21 -8.73966e-22 -2.93661e-22 -1.31339e-20 6.56332e-34 
8.77201e-21 -6.28734e-23 -2.76584e-23 -1.62237e-21 -3.39647e-22 -1.49413e-22 -8.76415e-21 5.27047e-34 
1.57716e-20 -1.94225e-22 -1.29936e-22 -2.85412e-21 -1.06969e-21 -7.1562e-22 -1.5719e-20 -1.29099e-33 
6.86225e-21 -8.16691e-25 -2.4541e-27 -1.71556e-21 -3.26676e-24 -9.81638e-27 -6.86225e-21 -2.78077e-33 
7.6631e-21 -1.08566e-23 -5.69333e-23 -1.84065e-21 -4.51765e-23 -2.3691e-22 -7.6593e-21 1.28297e-34 
6.7789e-21 -1.19835e-23 -3.79176e-23 -1.09277e-21 -7.42895e-23 -2.35063e-22 -6.77442e-21 -4.79149e-34 
6.65557e-21 -2.17083e-23 -5.23523e-23 -1.20262e-21 -1.20006e-22 -2.89409e-22 -6.6482e-21 -2.80177e-34 
9.40527e-21 -6.64238e-23 -2.96551e-23 -1.73949e-21 -3.58835e-22 -1.60203e-22 -9.39706e-21 1.15679e-33 
8.12329e-21 -4.54125e-23 -7.68403e-23 -1.46093e-21 -2.5204e-22 -4.26465e-22 -8.10817e-21 -2.03699e-33 
9.72706e-21 -9.29657e-23 -7.1084e-23 -1.76769e-21 -5.10445e-22 -3.90299e-22 -9.70581e-21 6.70192e-34 
5.41245e-21 -8.42949e-24 -2.05023e-23 -1.77006e-21 -2.57734e-23 -6.26865e-23 -5.41202e-21 -2.87973e-34 
7.37049e-21 -2.13691e-23 -1.37429e-23 -1.21499e-21 -1.29603e-22 -8.33503e-23 -7.36888e-21 3.04826e-34 
9.58146e-21 -1.31705e-23 -4.54958e-23 -1.14805e-21 -1.09826e-22 -3.79379e-22 -9.57332e-21 -2.48647e-33 
6.49307e-21 -1.12665e-23 -1.83243e-23 -1.06038e-21 -6.89741e-23 -1.12182e-22 -6.49173e-21 8.22242e-34 
7.03474e-21 -2.23124e-24 0 -1.31902e-22 -1.18982e-22 0 -7.03373e-21 4.50445e-34 
6.84596e-21 -2.2124e-23 3.59001e-23 -1.25255e-21 -1.20853e-22 1.96105e-22 -6.84208e-21 -1.39119e-33 
6.7245e-21 -2.4642e-23 0 -2.3956e-21 -6.91668e-23 0 -6.72414e-21 5.5718e-34 
7.43325e-21 -9.47446e-25 2.38533e-23 -1.79067e-21 -3.9326e-24 9.90086e-23 -7.43259e-21 1.00451e-33 
6.95338e-21 -9.85115e-24 5.16604e-23 -1.67018e-21 -4.09925e-23 2.14969e-22 -6.94994e-21 -8.13718e-34 
1.06244e-20 -1.01662e-22 8.75302e-23 -1.92265e-21 -5.60411e-22 4.82512e-22 -1.05987e-20 3.09654e-34 
7.99069e-21 -5.65066e-23 2.91978e-23 -1.4752e-21 -3.05795e-22 1.58008e-22 -7.98327e-21 -7.49687e-34 
9.84374e-21 -8.51752e-23 1.07905e-22 -1.76049e-21 -4.7481e-22 6.0152e-22 -9.81387e-21 1.91414e-33 
7.1545e-21 -3.57801e-23 4.51173e-23 -1.30495e-21 -1.95976e-22 2.47118e-22 -7.14755e-21 -4.95052e-34 
7.75895e-21 -1.51028e-23 4.33995e-23 -1.25075e-21 -9.36261e-23 2.69044e-22 -7.75372e-21 1.8354e-33 
7.12346e-21 -1.23395e-23 1.32823e-23 -1.17427e-21 -7.48463e-23 8.05648e-23 -7.12261e-21 -1.63956e-34 
7.77112e-21 -7.26401e-23 0 -2.76846e-21 -2.03832e-22 0 -7.76844e-21 2.42362e-33 
6.4696e-21 -2.19583e-24 0 -4.60959e-21 -3.08186e-24 0 -6.4696e-21 6.9829e-34 
6.65415e-21 -1.09581e-23 3.90861e-23 -1.61846e-21 -4.50391e-23 1.60649e-22 -6.65205e-21 1.64913e-34 
1.22014e-20 -1.45181e-22 0 -2.23056e-21 -7.92477e-22 0 -1.21756e-20 -9.29088e-34 
7.21789e-21 -9.78286e-24 5.14275e-21 0 -1.37303e-23 7.21788e-21 0 -5.77956e-34 
1.39381e-20 -1.70872e-22 2.56786e-21 -5.74146e-23 -9.25202e-22 1.39039e-20 -3.10876e-22 5.48849e-35 
8.16691e-21 -5.85364e-23 1.51045e-21 -2.57505e-23 -3.16218e-22 8.1596e-21 -1.39106e-22 -4.63162e-34 
1.66037e-20 -2.04472e-22 3.0047e-21 -1.36791e-22 -1.12613e-21 1.65483e-20 -7.53375e-22 -9.16485e-34 
5.71674e-21 -6.80361e-25 1.42918e-21 -2.04443e-27 -2.72144e-24 5.71674e-21 -8.17774e-27 9.39313e-34 
7.71897e-21 -1.09358e-23 1.85407e-21 -5.73484e-23 -4.55059e-23 7.71515e-21 -2.38638e-22 3.8489e-34 
5.85891e-21 -1.03572e-23 9.44465e-22 -3.27717e-23 -6.42074e-23 5.85504e-21 -2.03162e-22 -3.71799e-34 
7.98365e-21 -2.604e-23 1.44259e-21 -6.27989e-23 -1.43952e-22 7.9748e-21 -3.47159e-22 -5.22998e-34 
8.19759e-21 -5.78947e-23 1.51613e-21 -2.58472e-23 -3.12759e-22 8.19043e-21 -1.39632e-22 1.01761e-33 
9.95861e-21 -5.56727e-23 1.791e-21 -9.42011e-23 -3.08984e-22 9.94008e-21 -5.22818e-22 -2.51518e-33 
1.09498e-20 -1.04652e-22 1.98989e-21 -8.00194e-23 -5.74608e-22 1.09259e-20 -4.3936e-22 3.0147e-34 
5.77936e-21 -9.00093e-24 1.89006e-21 -2.18922e-23 -2.75206e-23 5.77891e-21 -6.69361e-23 7.36075e-35 
5.97524e-21 -1.73238e-23 9.84988e-22 -1.11413e-23 -1.05069e-22 5.97393e-21 -6.75719e-23 4.99505e-34 
7.79428e-21 -1.07139e-23 9.3391e-22 -3.70097e-23 -8.93407e-23 7.78766e-21 -3.08615e-22 -2.96544e-33 
5.88925e-21 -1.02188e-23 9.61775e-22 -1.66202e-23 -6.25599e-23 5.88804e-21 -1.0175e-22 1.31611e-33 
5.04876e-21 -1.60134e-24 9.46644e-23 0 -8.53924e-23 5.04804e-21 0 7.20712e-34 
6.87824e-21 -2.22284e-23 1.25846e-21 3.60694e-23 -1.21423e-22 6.87435e-21 1.9703e-22 -1.15817e-33 
6.31348e-21 -2.31358e-23 2.24918e-21 0 -6.49391e-23 6.31314e-21 0 1.71896e-34 
6.53339e-21 -8.3275e-25 1.57389e-21 2.09656e-23 -3.45653e-24 6.53281e-21 8.70229e-23 4.64566e-34 
7.67208e-21 -1.08694e-23 1.84281e-21 5.7e-23 -4.52295e-23 7.66828e-21 2.37188e-22 -1.84536e-33 
1.11e-20 -1.06213e-22 2.00872e-21 9.14486e-23 -5.85499e-22 1.10731e-20 5.04112e-22 8.73085e-34 
7.66204e-21 -5.41826e-23 1.41452e-21 2.79969e-23 -2.93218e-22 7.65493e-21 1.5151e-22 2.90047e-33 
1.09019e-20 -9.43307e-23 1.94973e-21 1.19504e-22 -5.25847e-22 1.08688e-20 6.66177e-22 9.06448e-34 
8.95755e-21 -4.47973e-23 1.63382e-21 5.64876e-23 -2.45366e-22 8.94885e-21 3.09396e-22 -1.17748e-33 
8.7045e-21 -1.69434e-23 1.40318e-21 4.86884e-23 -1.05036e-22 8.69863e-21 3.01831e-22 1.90348e-33 
6.77343e-21 -1.17332e-23 1.11657e-21 1.26296e-23 -7.11685e-23 6.77262e-21 7.6606e-23 -1.48585e-34 
7.86073e-21 -7.34778e-23 2.80039e-21 0 -2.06182e-22 7.85803e-21 0 2.34303e-33 
6.29586e-21 -2.13686e-24 4.4858e-21 0 -2.9991e-24 6.29586e-21 0 8.47077e-34 
6.6789e-21 -1.09989e-23 1.62448e-21 3.92315e-23 -4.52066e-23 6.6768e-21 1.61246e-22 -1.57969e-34 
1.40358e-20 -1.67009e-22 2.56593e-21 0 -9.11627e-22 1.40062e-20 0 -1.52158e-33 
6.503e-21 -8.81392e-24 0 4.63339e-21 -1.23704e-23 0 6.50299e-21 -4.50509e-34 
1.31338e-20 -1.61012e-22 5.41015e-23 2.41968e-21 -8.71815e-22 2.92938e-22 1.31016e-20 -5.05398e-34 
8.55924e-21 -6.13484e-23 2.69875e-23 1.58301e-21 -3.31409e-22 1.45789e-22 8.55158e-21 -2.48693e-34 
1.58879e-20 -1.95657e-22 1.30894e-22 2.87517e-21 -1.07758e-21 7.20898e-22 1.5835e-20 -2.51219e-34 
6.51916e-21 -7.75859e-25 2.3314e-27 1.62979e-21 -3.10343e-24 9.32559e-27 6.51916e-21 9.37624e-34 
7.19952e-21 -1.01999e-23 5.34891e-23 1.7293e-21 -4.24436e-23 2.22578e-22 7.19596e-21 4.42887e-34 
6.20847e-21 -1.09751e-23 3.47269e-23 1.00081e-21 -6.80382e-23 2.15283e-22 6.20436e-21 -4.71294e-34 
6.46338e-21 -2.10814e-23 5.08405e-23 1.16789e-21 -1.1654e-22 2.81052e-22 6.45621e-21 -8.6388e-35 
9.21692e-21 -6.50936e-23 2.90612e-23 1.70465e-21 -3.51649e-22 1.56994e-22 9.20887e-21 1.0062e-33 
7.81656e-21 -4.36978e-23 7.39389e-23 1.40576e-21 -2.42523e-22 4.10362e-22 7.80202e-21 -1.81431e-33 
1.021e-20 -9.75816e-23 7.46134e-23 1.85546e-21 -5.35789e-22 4.09678e-22 1.01877e-20 -1.76244e-34 
6.35733e-21 -9.90108e-24 2.40815e-23 2.07907e-21 -3.02729e-23 7.36301e-23 6.35684e-21 -2.16948e-34 
7.04644e-21 -2.04296e-23 1.31387e-23 1.16157e-21 -1.23905e-22 7.96858e-23 7.0449e-21 4.66205e-34 
9.69289e-21 -1.33237e-23 4.60249e-23 1.1614e-21 -1.11103e-22 3.83791e-22 9.68466e-21 -2.69074e-33 
6.76833e-21 -1.17441e-23 1.91011e-23 1.10534e-21 -7.18982e-23 1.16938e-22 6.76694e-21 2.1461e-33 
5.25256e-21 -1.66598e-24 0 9.84857e-23 -8.88394e-23 0 5.25181e-21 -4.95489e-34 
6.55839e-21 -2.11947e-23 -3.43921e-23 1.19994e-21 -1.15776e-22 -1.87868e-22 6.55468e-21 -9.75907e-34 
6.18624e-21 -2.26695e-23 0 2.20385e-21 -6.36303e-23 0 6.18591e-21 1.28033e-34 
7.42888e-21 -9.46889e-25 -2.38392e-23 1.78961e-21 -3.93029e-24 -9.89505e-23 7.42822e-21 1.07113e-33 
6.77404e-21 -9.59707e-24 -5.0328e-23 1.6271e-21 -3.99352e-23 -2.09424e-22 6.77068e-21 -1.47453e-33 
1.08252e-20 -1.03583e-22 -8.91846e-23 1.95899e-21 -5.71004e-22 -4.91631e-22 1.0799e-20 -1.39694e-34 
8.42984e-21 -5.96121e-23 -3.08024e-23 1.55627e-21 -3.22601e-22 -1.66692e-22 8.42202e-21 -1.00796e-33 
1.04576e-20 -9.04865e-23 -1.14634e-22 1.87027e-21 -5.04418e-22 -6.39029e-22 1.04258e-20 2.95008e-33 
8.06253e-21 -4.03212e-23 -5.08434e-23 1.47057e-21 -2.20849e-22 -2.78482e-22 8.05469e-21 -1.76738e-33 
7.58733e-21 -1.47688e-23 -4.24396e-23 1.22309e-21 -9.15551e-23 -2.63093e-22 7.58221e-21 1.55001e-33 
6.20719e-21 -1.07523e-23 -1.15738e-23 1.02322e-21 -6.52191e-23 -7.0202e-23 6.20645e-21 -2.40811e-34 
7.6672e-21 -7.16687e-23 0 2.73144e-21 -2.01106e-22 0 7.66456e-21 2.84079e-33 
6.70054e-21 -2.27421e-24 0 4.77413e-21 -3.19187e-24 0 6.70054e-21 5.69065e-34 
6.91062e-21 -1.13804e-23 -4.05926e-23 1.68084e-21 -4.6775e-23 -1.66841e-22 6.90844e-21 -1.52761e-34 
1.2114e-20 -1.44142e-22 0 2.21459e-21 -7.86803e-22 0 1.20884e-20 -8.48398e-34 
6.87411e-21 -9.31691e-24 -4.89781e-21 0 -1.30763e-23 -6.8741e-21 0 -2.57264e-34 
1.38833e-20 -1.702e-22 -2.55776e-21 5.71888e-23 -9.21563e-22 -1.38492e-20 3.09654e-22 7.54667e-34 
7.39133e-21 -5.29774e-23 -1.36701e-21 2.3305e-23 -2.86188e-22 -7.38471e-21 1.25896e-22 -8.89819e-35 
1.72587e-20 -2.12538e-22 -3.12323e-21 1.42187e-22 -1.17055e-21 -1.72012e-20 7.83096e-22 -8.58333e-34 
5.61557e-21 -6.6832e-25 -1.40389e-21 2.00825e-27 -2.67328e-24 -5.61557e-21 8.03301e-27 9.12282e-34 
6.45995e-21 -9.15208e-24 -1.55166e-21 4.79944e-23 -3.80835e-23 -6.45675e-21 1.99714e-22 6.04577e-34 
7.06843e-21 -1.24953e-23 -1.13944e-21 3.95371e-23 -7.74624e-23 -7.06375e-21 2.45103e-22 -7.98581e-34 
7.51578e-21 -2.4514e-23 -1.35805e-21 5.91186e-23 -1.35516e-22 -7.50745e-21 3.26814e-22 -1.8912e-34 
8.85116e-21 -6.25105e-23 -1.63701e-21 2.79079e-23 -3.37694e-22 -8.84343e-21 1.50764e-22 1.05868e-33 
1.0259e-20 -5.73522e-23 -1.84503e-21 9.7043e-23 -3.18306e-22 -1.024e-20 5.3859e-22 -3.3567e-33 
1.04092e-20 -9.94849e-23 -1.89165e-21 7.60687e-23 -5.46239e-22 -1.03864e-20 4.17668e-22 5.10181e-35 
5.7874e-21 -9.01346e-24 -1.89269e-21 2.19227e-23 -2.75589e-23 -5.78695e-21 6.70293e-23 -2.49232e-34 
6.29171e-21 -1.82414e-23 -1.03716e-21 1.17314e-23 -1.10634e-22 -6.29033e-21 7.11508e-23 6.50637e-34 
9.70845e-21 -1.33451e-23 -1.16326e-21 4.60988e-23 -1.11281e-22 -9.7002e-21 3.84407e-22 -2.79991e-33 
5.457e-21 -9.46876e-24 -8.91184e-22 1.54004e-23 -5.79683e-23 -5.45588e-21 9.42819e-23 6.10218e-34 
2.79981e-21 -8.8803e-25 -5.24966e-23 0 -4.73547e-23 -2.79941e-21 0 7.20712e-34 
6.69274e-21 -2.16289e-23 -1.22452e-21 -3.50966e-23 -1.18148e-22 -6.68895e-21 -1.91716e-22 -1.25507e-33 
5.8466e-21 -2.14249e-23 -2.08285e-21 0 -6.01369e-23 -5.84629e-21 0 4.74196e-34 
8.12879e-21 -1.0361e-24 -1.95822e-21 -2.60852e-23 -4.30058e-24 -8.12807e-21 -1.08273e-22 1.11671e-33 
6.94997e-21 -9.84631e-24 -1.66936e-21 -5.16351e-23 -4.09724e-23 -6.94652e-21 -2.14863e-22 -1.36381e-33 
1.30886e-20 -1.2524e-22 -2.36858e-21 -1.07831e-22 -6.90388e-22 -1.30568e-20 -5.94421e-22 5.16867e-34 
7.83936e-21 -5.54365e-23 -1.44726e-21 -2.86448e-23 -3.00004e-22 -7.83209e-21 -1.55016e-22 2.25363e-33 
1.07896e-20 -9.33591e-23 -1.92964e-21 -1.18273e-22 -5.20431e-22 -1.07568e-20 -6.59315e-22 9.13511e-34 
9.50805e-21 -4.75504e-23 -1.73423e-21 -5.99591e-23 -2.60445e-22 -9.4988e-21 -3.2841e-22 -1.4574e-33 
7.47043e-21 -1.45412e-23 -1.20424e-21 -4.17857e-23 -9.01445e-23 -7.46539e-21 -2.59039e-22 1.78304e-33 
6.0766e-21 -1.05261e-23 -1.0017e-21 -1.13303e-23 -6.3847e-23 -6.07588e-21 -6.87251e-23 -6.32769e-34 
7.36309e-21 -6.88261e-23 -2.6231e-21 0 -1.9313e-22 -7.36056e-21 0 2.06689e-33 
6.67786e-21 -2.26651e-24 -4.75797e-21 0 -3.18107e-24 -6.67786e-21 0 5.5721e-34 
6.18283e-21 -1.01819e-23 -1.50382e-21 -3.63176e-23 -4.18489e-23 -6.18088e-21 -1.4927e-22 4.68699e-35 
1.29243e-20 -1.53783e-22 -2.36271e-21 0 -8.39429e-22 -1.2897e-20 0 -9.56753e-34 
5.21206e-20 0 -4.3538e-20 -4.3538e-20 0 -3.68548e-20 -3.68548e-20 2.58541e-32 
0 0 0 0 0 0 0 0 
0 0 0 0 0 0 0 0 
0 0 0 0 0 0 0 0 
0 0 0 0 0 0 0 0 
0 0 0 0 0 0 0 0 
0 0 0 0 0 0 0 0 
0 0 0 0 0 0 0 0 
0 0 0 0 0 0 0 0 
0 0 0 0 0 0 0 0 
0 0 0 0 0 0 0 0 
0 0 0 0 0 0 0 0 
0 0 0 0 0 0 0 0 
0 0 0 0 0 0 0 0 
0 0 0 0 0 0 0 0 
0 0 0 0 0 0 0 0 
0 0 0 0 0 0 0 0 
0 0 0 0 0 0 0 0 
0 0 0 0 0 0 0 0 
0 0 0 0 0 0 0 0 
0 0 0 0 0 0 0 0 
0 0 0 0 0 0 0 0 
0 0 0 0 0 0 0 0 
0 0 0 0 0 0 0 0 
0 0 0 0 0 0 0 0 
0 0 0 0 0 0 0 0 
0 0 0 0 0 0 0 0 
0 0 0 0 0 0 0 0 
0 0 0 0 0 0 0 0 
0 0 0 0 0 0 0 0 
0 0 0 0 0 0 0 0 
0 0 0 0 0 0 0 0 
0 0 0 0 0 0 0 0 
0 0 0 0 0 0 0 0 
0 0 0 0 0 0 0 0 
0 0 0 0 0 0 0 0 
0 0 0 0 0 0 0 0 
0 0 0 0 0 0 0 0 
0 0 0 0 0 0 0 0 
0 0 0 0 0 0 0 0 
0 0 0 0 0 0 0 0 
0 0 0 0 0 0 0 0 
0 0 0 0 0 0 0 0 
0 0 0 0 0 0 0 0 
0 0 0 0 0 0 0 0 
0 0 0 0 0 0 0 0 
0 0 0 0 0 0 0 0 
5.31182e-20 0 4.43713e-20 4.43713e-20 0 3.75602e-20 3.75602e-20 2.68405e-32 
5.69143e-20 -2.32897e-21 -3.52944e-22 -1.31433e-20 -9.92695e-21 -1.50438e-21 -5.60217e-20 -2.92735e-32 
6.1567e-20 -3.73941e-21 -1.36548e-21 -2.07364e-20 -1.09033e-20 -3.98146e-21 -6.04629e-20 -1.82125e-32 
4.76897e-20 -1.74518e-21 -3.06908e-22 -9.76035e-21 -8.38991e-21 -1.47545e-21 -4.69227e-20 -1.63451e-33 
9.86835e-20 -2.96414e-21 -2.36517e-21 -1.17184e-20 -2.37491e-20 -1.89501e-20 -9.38898e-20 -8.6663e-33 
1.07285e-19 -1.77852e-21 -1.05165e-21 -7.15195e-21 -2.56309e-20 -1.51558e-20 -1.0307e-19 -5.78846e-33 
1.11411e-19 -1.95908e-21 -7.75667e-22 -8.05276e-21 -2.62215e-20 -1.0382e-20 -1.07783e-19 1.22727e-32 
6.40242e-20 -1.04851e-21 -3.83607e-22 -4.72849e-21 -1.3817e-20 -5.05508e-21 -6.23108e-20 6.72332e-33 
4.80966e-20 -1.51041e-21 -4.2279e-22 -8.29674e-21 -8.60353e-21 -2.40828e-21 -4.72595e-20 1.20289e-34 
5.05974e-20 -1.76244e-21 -4.71817e-22 -9.49266e-21 -9.22526e-21 -2.46966e-21 -4.9688e-20 -6.40675e-33 
5.31408e-20 -1.70806e-21 -7.53393e-22 -9.07999e-21 -9.79163e-21 -4.31891e-21 -5.20521e-20 1.61251e-33 
5.86978e-20 -1.95712e-21 -9.88251e-22 -9.99158e-21 -1.12304e-20 -5.67078e-21 -5.73337e-20 -3.46567e-34 
1.61289e-19 -3.73494e-21 -3.29248e-21 -1.85599e-20 -3.13489e-20 -2.76351e-20 -1.5578e-19 4.93922e-32 
5.60813e-20 -2.10484e-21 -1.21661e-21 -1.05196e-20 -1.0933e-20 -6.31935e-21 -5.46411e-20 -2.78392e-33 
5.75376e-20 -1.25322e-21 -4.37462e-22 -6.17084e-21 -1.14238e-20 -3.98773e-21 -5.6251e-20 1.31285e-32 
6.05634e-20 -1.67571e-21 -9.04033e-22 -7.89595e-21 -1.24949e-20 -6.74089e-21 -5.88759e-20 -3.68464e-34 
8.67869e-20 -1.45857e-21 -6.91536e-22 -5.95591e-21 -2.05135e-20 -9.72589e-21 -8.3765e-20 -2.12179e-32 
6.64216e-20 -1.0338e-21 -4.5456e-22 -4.63885e-21 -1.43824e-20 -6.32393e-21 -6.45367e-20 -1.73338e-32 