ITEM: TIMESTEP
225
ITEM: NUMBER OF SURFS
6916
ITEM: BOX BOUNDS oo rr rr
-0.35 0.35
-0.25 0.25
-0.25 0.25
ITEM: SURFS f_save[1] f_save[2] f_save[3] f_save[4] f_save[5] f_save[6] f_save[7] f_save[8] 
7.56952 -5.67951e-05 0 0 -7.56952 0 0 0 
3.65361 -2.74135e-05 0 0 -3.65361 0 0 0 
0 0 0 0 0 0 0 0 
0.902316 -1.27313e-05 0.000270808 4.02788e-06 0 0.902316 0 106.373 
0.864894 -4.11709e-05 0.000259557 -1.3267e-05 0 0.864894 0 311.878 
0.932606 -2.38483e-05 -0.000279899 4.14318e-06 0 -0.932606 0 166.188 
0.981439 -3.52551e-05 -0.000294533 -3.62805e-06 0 -0.981439 0 226.421 
0 0 0 0 0 0 0 0 
0 0 0 0 0 0 0 0 
0 0 0 0 0 0 0 0 
0.29598 -4.44287e-05 -1.58691e-06 0.000173148 0 0 0.29598 170.332 
0.401432 -2.34222e-05 -7.82065e-06 0.000234838 0 0 0.401432 86.9184 
0 0 0 0 0 0 0 0 
12.6622 -3.08642e-05 0 0 -12.6622 0 0 0 
0 0 0 0 0 0 0 0 
62.1483 -7.76857e-06 -1.35324e-06 2.32647e-07 -62.1483 0 0 84182.6 
0 0 0 0 0 0 0 0 
0 0 0 0 0 0 0 0 
6.64277 -1.61918e-05 0 0 -6.64277 0 0 0 
19.1304 -4.66302e-05 -9.76949e-08 -5.52488e-07 -19.1304 0 0 4738.68 
0 0 0 0 0 0 0 0 
0 0 0 0 0 0 0 0 
5.83142 -1.38497e-05 0 0 -5.83142 0 0 0 
10.3243 -2.45203e-05 0 0 -10.3243 0 0 0 
0 0 0 0 0 0 0 0 
0 0 0 0 0 0 0 0 
0 0 0 0 0 0 0 0 
0 0 0 0 0 0 0 0 
24.82 -6.04988e-05 0 0 -24.82 0 0 0 
15.5949 -3.80125e-05 0 0 -15.5949 0 0 0 
0 0 0 0 0 0 0 0 
107.61 -1.34514e-05 0 0 -107.61 0 0 0 
7.42928 -1.76446e-05 9.78376e-07 -3.20492e-07 -7.42928 0 0 5910.37 
17.5794 -4.17511e-05 1.24174e-08 -1.05899e-06 -17.5794 0 0 4248.1 
18.5757 -4.41173e-05 -9.93913e-07 -1.44024e-06 -18.5757 0 0 9101.19 
0 0 0 0 0 0 0 0 
7.34812 -1.74518e-05 6.30217e-07 5.78537e-07 -7.34812 0 0 4971.32 
0 0 0 0 0 0 0 0 
15.0669 -3.57838e-05 0 0 -15.0669 0 0 0 
22.1638 -5.2639e-05 0 0 -22.1638 0 0 0 
10.5513 -2.50594e-05 0 0 -10.5513 0 0 0 
21.796 -5.17657e-05 0 0 -21.796 0 0 0 
16.3307 -3.87855e-05 -8.05991e-07 -1.28632e-06 -16.3307 0 0 5546.66 
24.7002 -5.86631e-05 2.86822e-06 1.03356e-06 -24.7002 0 0 2692.77 
9.47014 -2.24916e-05 -8.63467e-07 1.0788e-06 -9.47014 0 0 5223.83 
6.27534 -1.49039e-05 0 0 -6.27534 0 0 0 
12.9547 -3.1577e-05 -4.73409e-07 1.04883e-07 -12.9547 0 0 4850.07 
7.5989 -1.85223e-05 -6.23298e-07 -2.87932e-07 -7.5989 0 0 3570.36 
17.6394 -4.29961e-05 0 0 -17.6394 0 0 0 
7.64293 -1.86297e-05 0 0 -7.64293 0 0 0 
12.3909 -3.02028e-05 0 0 -12.3909 0 0 0 
13.194 -3.21605e-05 9.66476e-08 -1.49642e-07 -13.194 0 0 6139.23 
18.464 -4.3852e-05 0 0 -18.464 0 0 0 
5.89906 -1.40102e-05 0 0 -5.89906 0 0 0 
11.639 -2.76429e-05 0 0 -11.639 0 0 0 
0 0 0 0 0 0 0 0 
10.2772 -2.44084e-05 0 0 -10.2772 0 0 0 
0 0 0 0 0 0 0 0 
6.5233 -1.54928e-05 0 0 -6.5233 0 0 0 
23.1313 -5.49367e-05 0 0 -23.1313 0 0 0 
5.56459 -1.35637e-05 0 0 -5.56459 0 0 0 
8.07009 -1.96709e-05 0 0 -8.07009 0 0 0 
11.0175 -2.68551e-05 0 0 -11.0175 0 0 0 
12.4271 -3.02911e-05 0 0 -12.4271 0 0 0 
0 0 0 0 0 0 0 0 
6.63437 -1.61713e-05 0 0 -6.63437 0 0 0 
5.50769 -1.34251e-05 0 0 -5.50769 0 0 0 
2.4769 -6.03749e-06 5.12829e-07 4.75342e-07 -2.4769 0 0 3398.35 
15.9222 -3.78152e-05 9.32788e-07 -1.315e-07 -15.9222 0 0 4795.13 
6.04394 -1.43544e-05 -1.14535e-06 -2.45412e-06 -6.04394 0 0 9083.46 
11.427 -2.78535e-05 2.17107e-07 7.93598e-07 -11.427 0 0 5829.98 
3.95886 -9.64979e-06 0 0 -3.95886 0 0 0 
1.85746 -4.41146e-06 1.70745e-07 -3.20394e-07 -1.85746 0 0 3035.83 
6.30926 -1.49845e-05 0 0 -6.30926 0 0 0 
11.8739 -2.89427e-05 0 0 -11.8739 0 0 0 
6.0429 -1.47295e-05 -1.60941e-06 4.3276e-07 -6.0429 0 0 9129.82 
25.0085 -6.09584e-05 6.72427e-07 1.01967e-06 -25.0085 0 0 10445.4 
8.45957 -2.06202e-05 5.60593e-07 8.05368e-07 -8.45957 0 0 4615.37 
8.69705 -2.06555e-05 0 0 -8.69705 0 0 0 
18.0022 -4.27552e-05 0 0 -18.0022 0 0 0 
0 0 0 0 0 0 0 0 
10.1243 -2.40453e-05 0 0 -10.1243 0 0 0 
12.246 -2.90843e-05 0 0 -12.246 0 0 0 
7.75548 -1.84193e-05 -5.71126e-07 7.02665e-08 -7.75548 0 0 5348.84 
5.67786 -1.34849e-05 0 0 -5.67786 0 0 0 
9.44513 -2.24322e-05 1.54821e-07 -7.18335e-07 -9.44513 0 0 5694.82 
17.368 -4.1249e-05 0 0 -17.368 0 0 0 
6.21724 -1.47659e-05 0 0 -6.21724 0 0 0 
0 0 0 0 0 0 0 0 
11.2995 -2.75426e-05 0 0 -11.2995 0 0 0 
2.25662 -5.50055e-06 0 0 -2.25662 0 0 0 
22.5577 -5.49847e-05 0 0 -22.5577 0 0 0 
0 0 0 0 0 0 0 0 
4.78065 -1.13541e-05 6.19541e-07 4.3254e-07 -4.78065 0 0 5066.62 
17.1504 -4.18041e-05 0 0 -17.1504 0 0 0 
17.1072 -4.16988e-05 1.29055e-06 7.59113e-07 -17.1072 0 0 9519.17 
19.1661 -4.55196e-05 -6.70942e-08 -7.7746e-07 -19.1661 0 0 4717.69 
14.4543 -3.4329e-05 7.29698e-07 -3.33394e-07 -14.4543 0 0 2648.14 
0 0 0 0 0 0 0 0 
0 0 0 0 0 0 0 0 
12.7375 -3.02515e-05 -1.27527e-06 -5.95071e-07 -12.7375 0 0 1013.69 
17.9297 -4.25831e-05 3.13231e-06 2.68437e-07 -17.9297 0 0 9648.59 
3.09769 -7.35703e-06 5.18317e-07 5.36315e-07 -3.09769 0 0 4777.41 
12.1493 -2.88546e-05 0 0 -12.1493 0 0 0 
0 0 0 0 0 0 0 0 
0 0 0 0 0 0 0 0 
11.0025 -2.6131e-05 2.23046e-06 1.7732e-07 -11.0025 0 0 8757.52 
0 0 0 0 0 0 0 0 
13.7577 -3.26746e-05 4.63805e-08 -7.14394e-07 -13.7577 0 0 6489.23 
3.69507 -8.7758e-06 -5.90225e-07 -9.49928e-07 -3.69507 0 0 5986.02 
0 0 0 0 0 0 0 0 
0 0 0 0 0 0 0 0 
18.9166 -4.49268e-05 0 0 -18.9166 0 0 0 
6.37654 -1.51443e-05 0 0 -6.37654 0 0 0 
0 0 0 0 0 0 0 0 
5.07949 -1.20638e-05 5.31445e-06 -6.66635e-07 -5.07949 0 0 2682.25 
0 0 0 0 0 0 0 0 
0 0 0 0 0 0 0 0 
13.2825 -3.15459e-05 7.76464e-07 3.39049e-06 -13.2825 0 0 2841.62 
8.88233 -2.10955e-05 0 0 -8.88233 0 0 0 
17.121 -4.06623e-05 0 0 -17.121 0 0 0 
6.65922 -1.58157e-05 -4.59767e-06 -1.67734e-06 -6.65922 0 0 3499.42 
0 0 0 0 0 0 0 0 
0 0 0 0 0 0 0 0 
3.1599 -7.50478e-06 -3.48681e-07 -1.04189e-06 -3.1599 0 0 5060.06 
4.3442 -1.03175e-05 0 0 -4.3442 0 0 0 
19.1513 -4.66813e-05 0 0 -19.1513 0 0 0 
12.5195 -3.05162e-05 0 0 -12.5195 0 0 0 
0 0 0 0 0 0 0 0 
0 0 0 0 0 0 0 0 
5.27394 -1.25256e-05 0 0 -5.27394 0 0 0 
11.9989 -2.84975e-05 0 0 -11.9989 0 0 0 
10.2205 -2.49126e-05 0 0 -10.2205 0 0 0 
15.9438 -3.88632e-05 0 0 -15.9438 0 0 0 
0 0 0 0 0 0 0 0 
0 0 0 0 0 0 0 0 
5.48994 -1.30386e-05 0 0 -5.48994 0 0 0 
6.39154 -1.51799e-05 0 0 -6.39154 0 0 0 
0 0 0 0 0 0 0 0 
23.3101 -5.68183e-05 0 0 -23.3101 0 0 0 
0 0 0 0 0 0 0 0 
0 0 0 0 0 0 0 0 
9.58868 -2.27732e-05 3.22714e-08 1.59812e-07 -9.58868 0 0 5143.46 
9.06816 -2.15369e-05 4.0191e-07 -1.24784e-07 -9.06816 0 0 3937.66 
0 0 0 0 0 0 0 0 
11.8167 -2.88032e-05 -7.04108e-07 -1.55255e-06 -11.8167 0 0 10220.2 
0 0 0 0 0 0 0 0 
0 0 0 0 0 0 0 0 
13.1359 -3.11979e-05 0 0 -13.1359 0 0 0 
6.00278 -1.42566e-05 0 0 -6.00278 0 0 0 
22.6294 -5.51592e-05 0 0 -22.6294 0 0 0 
22.6872 -5.53001e-05 4.73883e-07 -3.89913e-07 -22.6872 0 0 10851 
0 0 0 0 0 0 0 0 
0 0 0 0 0 0 0 0 
0 0 0 0 0 0 0 0 
5.41214 -1.28539e-05 0 0 -5.41214 0 0 0 
5.73932 -1.36309e-05 0 0 -5.73932 0 0 0 
11.5076 -2.73306e-05 0 0 -11.5076 0 0 0 
0 0 0 0 0 0 0 0 
0 0 0 0 0 0 0 0 
6.01905 -1.46714e-05 0 0 -6.01905 0 0 0 
17.0733 -4.16161e-05 0 0 -17.0733 0 0 0 
15.1712 -3.69799e-05 -3.10697e-07 8.21456e-07 -15.1712 0 0 4480.55 
0 0 0 0 0 0 0 0 
0 0 0 0 0 0 0 0 
0 0 0 0 0 0 0 0 
6.04433 -1.43554e-05 0 0 -6.04433 0 0 0 
7.39476 -1.75627e-05 -1.05397e-06 -1.87918e-06 -7.39476 0 0 1198.79 
7.87094 -1.86936e-05 8.22612e-07 -1.6406e-07 -7.87094 0 0 2860.48 
8.70512 -2.06747e-05 0 0 -8.70512 0 0 0 
0 0 0 0 0 0 0 0 
0 0 0 0 0 0 0 0 
11.8212 -2.88142e-05 0 0 -11.8212 0 0 0 
0 0 0 0 0 0 0 0 
15.366 -3.64941e-05 7.97712e-07 -1.77633e-06 -15.366 0 0 8570.1 
10.8095 -2.56726e-05 0 0 -10.8095 0 0 0 
0 0 0 0 0 0 0 0 
0 0 0 0 0 0 0 0 
22.403 -5.32072e-05 -4.81338e-07 8.31301e-08 -22.403 0 0 5026.3 
0 0 0 0 0 0 0 0 
12.1006 -2.87392e-05 1.19557e-06 -8.44588e-08 -12.1006 0 0 5741.98 
9.79513 -2.32636e-05 9.03851e-07 -7.44146e-07 -9.79513 0 0 5816.56 
0 0 0 0 0 0 0 0 
0 0 0 0 0 0 0 0 
6.3371 -1.50506e-05 0 0 -6.3371 0 0 0 
18.6835 -4.43733e-05 0 0 -18.6835 0 0 0 
15.8246 -3.75834e-05 0 0 -15.8246 0 0 0 
6.3192 -1.50081e-05 0 0 -6.3192 0 0 0 
0 0 0 0 0 0 0 0 
0 0 0 0 0 0 0 0 
5.90984 -1.40359e-05 0 0 -5.90984 0 0 0 
3.50478 -8.3239e-06 4.25594e-07 2.64856e-07 -3.50478 0 0 5881.73 
0 0 0 0 0 0 0 0 
0 0 0 0 0 0 0 0 
30.3797 -7.2152e-05 0 0 -30.3797 0 0 0 
0 0 0 0 0 0 0 0 
0 0 0 0 0 0 0 0 
0 0 0 0 0 0 0 0 
9.35188 -2.27952e-05 0 0 -9.35188 0 0 0 
0 0 0 0 0 0 0 0 
16.8649 -4.00541e-05 0 0 -16.8649 0 0 0 
16.8529 -4.00257e-05 0 0 -16.8529 0 0 0 
111.115 -1.38894e-05 0 0 -111.115 0 0 0 
0 0 0 0 0 0 0 0 
0 0 0 0 0 0 0 0 
2.80023 -6.65053e-06 -1.29581e-06 -2.47418e-06 -2.80023 0 0 5580.22 
0 0 0 0 0 0 0 0 
0 0 0 0 0 0 0 0 
0 0 0 0 0 0 0 0 
0 0 0 0 0 0 0 0 
5.82635 -1.38376e-05 0 0 -5.82635 0 0 0 
12.973 -3.08109e-05 -8.4018e-07 1.28179e-06 -12.973 0 0 6348.09 
0 0 0 0 0 0 0 0 
0 0 0 0 0 0 0 0 
18.6583 -4.43136e-05 0 0 -18.6583 0 0 0 
15.4345 -3.66568e-05 4.5051e-07 3.24553e-08 -15.4345 0 0 6158.06 
3.90306 -9.26978e-06 0 0 -3.90306 0 0 0 
0 0 0 0 0 0 0 0 
0 0 0 0 0 0 0 0 
0 0 0 0 0 0 0 0 
9.96559 -2.36683e-05 -2.01025e-06 3.06006e-07 -9.96559 0 0 6080.91 
0 0 0 0 0 0 0 0 
0 0 0 0 0 0 0 0 
0 0 0 0 0 0 0 0 
0 0 0 0 0 0 0 0 
21.1684 -5.02752e-05 1.20092e-07 -1.88733e-07 -21.1684 0 0 4681.64 
18.8508 -4.47707e-05 -5.28732e-07 -1.41164e-08 -18.8508 0 0 5327.09 
7.07321 -1.67989e-05 -7.49933e-08 -1.08697e-06 -7.07321 0 0 13189.8 
0 0 0 0 0 0 0 0 
0 0 0 0 0 0 0 0 
18.5747 -4.41149e-05 0 0 -18.5747 0 0 0 
2.16033 -5.1308e-06 0 0 -2.16033 0 0 0 
12.6995 -3.01614e-05 0 0 -12.6995 0 0 0 
9.52425 -2.26201e-05 -8.78924e-07 5.00049e-07 -9.52425 0 0 5247.82 
0 0 0 0 0 0 0 0 
0 0 0 0 0 0 0 0 
9.86534 -2.34302e-05 1.00965e-06 5.36045e-07 -9.86534 0 0 5012.57 
0.965812 -2.2938e-06 -4.31498e-07 1.0372e-06 -0.965812 0 0 559.527 
0 0 0 0 0 0 0 0 
82.4922 -1.03116e-05 0 0 -82.4922 0 0 0 
18.0462 -4.28597e-05 0 0 -18.0462 0 0 0 
0 0 0 0 0 0 0 0 
4.1369 -1.00837e-05 0 0 -4.1369 0 0 0 
2.46708 -6.01351e-06 -1.43656e-06 1.48189e-06 -2.46708 0 0 4118.3 
0 0 0 0 0 0 0 0 
124.602 -1.55753e-05 0 0 -124.602 0 0 0 
6.31667 -1.50022e-05 -1.40944e-08 -4.74625e-08 -6.31667 0 0 1694.09 
0 0 0 0 0 0 0 0 
1.85091 -4.39593e-06 0 0 -1.85091 0 0 0 
22.5421 -5.35375e-05 0 0 -22.5421 0 0 0 
0 0 0 0 0 0 0 0 
0 0 0 0 0 0 0 0 
5.23054 -1.27495e-05 0 0 -5.23054 0 0 0 
9.29351 -2.2653e-05 0 0 -9.29351 0 0 0 
4.15085 -9.85833e-06 0 0 -4.15085 0 0 0 
3.58129 -8.50562e-06 1.39344e-06 3.85926e-07 -3.58129 0 0 5645.18 
0 0 0 0 0 0 0 0 
0 0 0 0 0 0 0 0 
15.3422 -3.64377e-05 -1.68732e-09 -1.0191e-06 -15.3422 0 0 6563.75 
5.86258 -1.39237e-05 0 0 -5.86258 0 0 0 
14.3425 -3.40633e-05 0 0 -14.3425 0 0 0 
6.15718 -1.46233e-05 0 0 -6.15718 0 0 0 
0 0 0 0 0 0 0 0 
0 0 0 0 0 0 0 0 
2.41891 -5.7449e-06 6.42667e-07 -6.83288e-07 -2.41891 0 0 3596.88 
14.5559 -3.45702e-05 -5.00971e-07 8.23911e-07 -14.5559 0 0 5484.01 
9.28273 -2.20465e-05 -8.18094e-07 -4.62077e-07 -9.28273 0 0 6144.85 
2.07273 -4.92277e-06 3.77424e-07 -4.37042e-07 -2.07273 0 0 3416 
0 0 0 0 0 0 0 0 
0 0 0 0 0 0 0 0 
9.12194 -2.16647e-05 0 0 -9.12194 0 0 0 
9.40061 -2.23265e-05 -5.25206e-08 -6.23436e-07 -9.40061 0 0 5062.91 
6.10988 -1.4511e-05 0 0 -6.10988 0 0 0 
6.05676 -1.43849e-05 0 0 -6.05676 0 0 0 
119.03 -1.48788e-05 0 0 -119.03 0 0 0 
0 0 0 0 0 0 0 0 
6.193 -1.47084e-05 5.5661e-07 -3.88863e-07 -6.193 0 0 4496.1 
6.01708 -1.42906e-05 0 0 -6.01708 0 0 0 
9.23464 -2.19323e-05 -5.12452e-07 2.70366e-07 -9.23464 0 0 4055.27 
15.3273 -3.64023e-05 -3.0553e-07 -6.56654e-07 -15.3273 0 0 4082.99 
0 0 0 0 0 0 0 0 
0 0 0 0 0 0 0 0 
0 0 0 0 0 0 0 0 
0.921382 -2.18829e-06 0 0 -0.921382 0 0 0 
5.82087 -1.38245e-05 0 0 -5.82087 0 0 0 
3.29669 -7.82963e-06 2.19062e-07 4.4907e-07 -3.29669 0 0 5420.3 
0 0 0 0 0 0 0 0 
0 0 0 0 0 0 0 0 
4.01836 -9.54363e-06 0 0 -4.01836 0 0 0 
17.9675 -4.26729e-05 0 0 -17.9675 0 0 0 
5.07903 -1.20627e-05 0 0 -5.07903 0 0 0 
5.28891 -1.25612e-05 0 0 -5.28891 0 0 0 
0 0 0 0 0 0 0 0 
0 0 0 0 0 0 0 0 
14.131 -3.3561e-05 -3.11268e-07 6.50015e-07 -14.131 0 0 3339.87 
8.52959 -2.02577e-05 4.32887e-07 4.44985e-07 -8.52959 0 0 2962.33 
0 0 0 0 0 0 0 0 
0 0 0 0 0 0 0 0 
15.998 -3.79953e-05 0 0 -15.998 0 0 0 
14.6793 -3.48633e-05 0 0 -14.6793 0 0 0 
0 0 0 0 0 0 0 0 
16.3669 -3.88714e-05 0 0 -16.3669 0 0 0 
69.9695 -8.7462e-06 -3.39503e-07 -6.01268e-07 -69.9695 0 0 114112 
0 0 0 0 0 0 0 0 
6.73742 -1.60014e-05 -3.60861e-07 -1.18273e-06 -6.73742 0 0 10262.4 
12.1126 -2.87674e-05 0 0 -12.1126 0 0 0 
0 0 0 0 0 0 0 0 
18.6716 -4.43451e-05 0 0 -18.6716 0 0 0 
0 0 0 0 0 0 0 0 
0 0 0 0 0 0 0 0 
4.19963 -9.9741e-06 0 0 -4.19963 0 0 0 
23.6569 -5.61851e-05 -8.55002e-08 3.47471e-07 -23.6569 0 0 6546.11 
6.54889 -1.55536e-05 0 0 -6.54889 0 0 0 
6.34775 -1.50759e-05 0 0 -6.34775 0 0 0 
0 0 0 0 0 0 0 0 
0 0 0 0 0 0 0 0 
21.2611 -5.04951e-05 0 0 -21.2611 0 0 0 
11.5304 -2.73848e-05 0 0 -11.5304 0 0 0 
0 0 0 0 0 0 0 0 
0 0 0 0 0 0 0 0 
5.7252 -1.35974e-05 0 0 -5.7252 0 0 0 
17.5578 -4.16999e-05 4.3965e-07 -7.44419e-07 -17.5578 0 0 5491.42 
0 0 0 0 0 0 0 0 
0 0 0 0 0 0 0 0 
13.0324 -3.0952e-05 0 0 -13.0324 0 0 0 
5.75143 -1.36596e-05 0 0 -5.75143 0 0 0 
0 0 0 0 0 0 0 0 
110.173 -1.37716e-05 0 0 -110.173 0 0 0 
3.62126 -8.60048e-06 3.87634e-07 6.01606e-07 -3.62126 0 0 6405.61 
10.7096 -2.54354e-05 -1.18001e-06 -6.02865e-07 -10.7096 0 0 8005.08 
0 0 0 0 0 0 0 0 
0 0 0 0 0 0 0 0 
12.0306 -2.93247e-05 0 0 -12.0306 0 0 0 
0 0 0 0 0 0 0 0 
9.46378 -0.00466497 1.35322e-06 -1.24218e-05 -9.46378 0 0 2115.74 
7.33603 -0.000357631 1.97997e-06 3.00124e-06 -7.33603 0 0 301.215 
17.1216 -4.2804e-05 0 0 -17.1216 0 0 0 
8.86895 -0.000421275 -2.18438e-06 2.32549e-06 -8.86895 0 0 1682.66 
10.7599 -2.68998e-05 0 0 -10.7599 0 0 0 
8.72382 -0.000414381 5.02574e-06 -1.46329e-06 -8.72382 0 0 1659.19 
12.1041 -3.02602e-05 -6.16941e-08 -3.39556e-07 -12.1041 0 0 4427.69 
8.39934 -0.000398969 -6.0878e-07 -1.19123e-06 -8.39934 0 0 1786.24 
28.8904 -7.22261e-05 6.51003e-07 -1.26665e-06 -28.8904 0 0 10210 
8.88027 -0.000421813 5.75543e-06 -9.87454e-06 -8.88027 0 0 1761.72 
4.45915 -1.11479e-05 2.15491e-07 1.04452e-07 -4.45915 0 0 3234.83 
12.6002 -0.000598509 4.33483e-06 4.2263e-07 -12.6002 0 0 3869.85 
0.977576 -2.44394e-06 0 0 -0.977576 0 0 0 
8.9262 -0.000423995 -4.60923e-07 -2.69622e-07 -8.9262 0 0 773.067 
32.9734 -8.24339e-05 1.64581e-06 -3.35124e-06 -32.9734 0 0 7044.2 
7.02528 -0.000342482 1.59857e-06 -1.29806e-07 -7.02528 0 0 1752.28 
9.04954 -0.00394886 -5.17626e-06 -3.27372e-06 -9.04954 0 0 1648.79 
7.21424 -0.000502911 -3.96028e-06 1.90016e-06 -7.21424 0 0 1269.31 
11.7635 -0.00101166 -1.10516e-06 -1.82763e-07 -11.7635 0 0 2336.13 
10.9101 -0.000938266 -1.02039e-06 -2.39676e-06 -10.9101 0 0 2187.52 
8.93121 -0.000435396 -2.97984e-06 5.11396e-07 -8.93121 0 0 1347.69 
16.2629 -4.06574e-05 0 0 -16.2629 0 0 0 
11.7138 -0.000556405 1.47578e-08 -4.96867e-07 -11.7138 0 0 2530.16 
5.13289 -1.28323e-05 -4.52088e-07 1.50727e-07 -5.13289 0 0 4567.34 
9.51794 -0.000452102 2.15988e-07 5.92035e-06 -9.51794 0 0 1778.47 
3.1262 -7.81552e-06 4.56245e-07 -5.43747e-07 -3.1262 0 0 3115.79 
12.6242 -0.00059965 -3.93652e-07 -3.4304e-06 -12.6242 0 0 1869.66 
21.9712 -5.4928e-05 0 0 -21.9712 0 0 0 
8.39726 -0.00039887 2.03387e-06 -5.38408e-07 -8.39726 0 0 1392.47 
7.70135 -1.92534e-05 -4.11659e-07 2.13739e-07 -7.70135 0 0 4466.99 
11.9678 -0.000568472 2.71332e-06 -3.44159e-06 -11.9678 0 0 2070.04 
7.91498 -1.97874e-05 4.56581e-07 5.48079e-07 -7.91498 0 0 3796.04 
7.53852 -0.00035808 -2.07993e-06 3.7926e-06 -7.53852 0 0 2306.96 
4.86887 -1.21722e-05 0 0 -4.86887 0 0 4.29351e-12 
8.22138 -0.000400792 3.78778e-06 3.23595e-06 -8.22138 0 0 2244.9 
8.16671 -0.000398127 4.87274e-06 -1.72306e-06 -8.16671 0 0 2136.77 
10.0509 -0.00495436 8.52481e-07 4.53495e-06 -10.0509 0 0 2275.43 
10.3522 -0.000890283 2.03317e-06 3.76976e-06 -10.3522 0 0 2182.81 
10.2178 -0.000878733 1.69754e-06 1.74524e-06 -10.2178 0 0 2100.37 
9.29914 -0.000122211 1.05099e-06 1.18987e-07 -9.29914 0 0 2769.25 
7.90128 -0.000385187 9.4743e-07 -1.00207e-06 -7.90128 0 0 1472.36 
0 0 0 0 0 0 0 0 
9.63006 -0.000457428 -3.03271e-06 -3.74079e-07 -9.63006 0 0 2947.38 
13.2368 -3.30921e-05 -6.19399e-07 9.04644e-08 -13.2368 0 0 4912.26 
8.50368 -0.000403925 -1.10541e-06 4.12637e-06 -8.50368 0 0 3104.74 
0 0 0 0 0 0 0 0 
8.59059 -0.000408053 -1.61104e-06 -1.51001e-06 -8.59059 0 0 1328.84 
6.39344 -1.59836e-05 0 0 -6.39344 0 0 0 
10.7878 -0.00051242 -1.17362e-06 4.38737e-07 -10.7878 0 0 728.535 
8.04976 -2.01244e-05 -1.26826e-06 1.32004e-06 -8.04976 0 0 4089.44 
10.7903 -0.000512541 -3.42957e-06 9.86274e-07 -10.7903 0 0 2368.92 
3.21116 -8.02789e-06 0 0 -3.21116 0 0 0 
9.30642 -0.000442055 -5.19012e-07 -4.66408e-06 -9.30642 0 0 2045.66 
0 0 0 0 0 0 0 0 
5.69222 -0.000277496 -3.66807e-06 1.75229e-06 -5.69222 0 0 797.498 
9.22546 -0.0045475 -1.28058e-06 1.06338e-05 -9.22546 0 0 1804.08 
11.3983 -2.84957e-05 0 0 -11.3983 0 0 0 
10.5649 -0.000501831 -5.24316e-07 6.97121e-08 -10.5649 0 0 1733.56 
5.55569 -1.38893e-05 0 0 -5.55569 0 0 0 
8.5144 -0.000404434 -5.60664e-06 1.00872e-06 -8.5144 0 0 1190.49 
24.0502 -6.01257e-05 4.08101e-07 2.64551e-07 -24.0502 0 0 7565.31 
10.1554 -0.00048238 3.84622e-06 -1.04232e-06 -10.1554 0 0 2050.85 
5.5259 -1.38148e-05 0 0 -5.5259 0 0 0 
11.2099 -0.000532468 -6.24073e-07 -2.35434e-06 -11.2099 0 0 2893.17 
15.0582 -3.76456e-05 0 0 -15.0582 0 0 0 
6.35906 -0.000302055 1.78997e-06 1.62826e-06 -6.35906 0 0 1409.15 
16.1415 -4.03537e-05 -9.99674e-07 -2.64535e-07 -16.1415 0 0 9856.66 
9.14171 -0.000434231 2.74163e-06 -1.38297e-07 -9.14171 0 0 1527.31 
15.3323 -3.83309e-05 0 0 -15.3323 0 0 1.39539e-11 
8.5942 -0.000418967 6.09486e-06 1.44944e-06 -8.5942 0 0 3408.92 
0.256729 -3.22727e-05 0.000150187 -1.98616e-06 0 0.256729 0 92.8497 
0.447402 -7.08582e-06 0.000130865 -1.23971e-07 0 0.447402 0 54.7979 
0.51166 -1.98491e-05 0.00014966 -1.12622e-06 0 0.51166 0 105.234 
0 0 0 0 0 0 0 0 
0 0 0 0 0 0 0 0 
1.39365 3.30992e-06 0 0 1.39365 0 0 0 
0 0 0 0 0 0 0 0 
0 0 0 0 0 0 0 0 
0 0 0 0 0 0 0 0 
0 0 0 0 0 0 0 0 
0.836508 1.98672e-06 -1.60602e-06 3.53191e-06 0.836508 0 0 1449.67 
0.648864 1.54106e-06 0 0 0.648864 0 0 0 
0 0 0 0 0 0 0 0 
1.06115 2.52023e-06 4.83404e-07 -2.94221e-07 1.06115 0 0 761.054 
0 0 0 0 0 0 0 0 
0 0 0 0 0 0 0 0 
0.921412 2.18836e-06 0 0 0.921412 0 0 0 
0 0 0 0 0 0 0 0 
0 0 0 0 0 0 0 0 
0 0 0 0 0 0 0 0 
0 0 0 0 0 0 0 0 
0 0 0 0 0 0 0 0 
0 0 0 0 0 0 0 0 
0 0 0 0 0 0 0 0 
0.593736 1.41013e-06 0 0 0.593736 0 0 0 
0 0 0 0 0 0 0 0 
0 0 0 0 0 0 0 0 
0 0 0 0 0 0 0 0 
3.10363 7.37113e-06 -2.3178e-07 -5.26253e-07 3.10363 0 0 4442.95 
0 0 0 0 0 0 0 0 
0 0 0 0 0 0 0 0 
0 0 0 0 0 0 0 0 
0 0 0 0 0 0 0 0 
0 0 0 0 0 0 0 0 
0.93025 2.20935e-06 0 0 0.93025 0 0 0 
0 0 0 0 0 0 0 0 
0 0 0 0 0 0 0 0 
0 0 0 0 0 0 0 0 
4.50257 1.15378e-05 0 0 4.50257 0 0 0 
0 0 0 0 0 0 0 0 
0 0 0 0 0 0 0 0 
0 0 0 0 0 0 0 0 
2.00653 4.7655e-06 0 0 2.00653 0 0 0 
0 0 0 0 0 0 0 0 
0 0 0 0 0 0 0 0 
0 0 0 0 0 0 0 0 
0 0 0 0 0 0 0 0 
0 0 0 0 0 0 0 0 
0 0 0 0 0 0 0 0 
0 0 0 0 0 0 0 0 
0 0 0 0 0 0 0 0 
0 0 0 0 0 0 0 0 
0 0 0 0 0 0 0 0 
4.63131 1.09994e-05 0 0 4.63131 0 0 0 
0 0 0 0 0 0 0 0 
1.53426 3.64387e-06 0 0 1.53426 0 0 0 
0 0 0 0 0 0 0 0 
0 0 0 0 0 0 0 0 
0 0 0 0 0 0 0 0 
0 0 0 0 0 0 0 0 
2.45374 5.82764e-06 0 0 2.45374 0 0 0 
0 0 0 0 0 0 0 0 
0 0 0 0 0 0 0 0 
0 0 0 0 0 0 0 0 
0 0 0 0 0 0 0 0 
0 0 0 0 0 0 0 0 
0 0 0 0 0 0 0 0 
0 0 0 0 0 0 0 0 
0.873082 2.07357e-06 0 0 0.873082 0 0 0 
0 0 0 0 0 0 0 0 
0.438181 1.04068e-06 0 0 0.438181 0 0 0 
0 0 0 0 0 0 0 0 
0 0 0 0 0 0 0 0 
0 0 0 0 0 0 0 0 
0 0 0 0 0 0 0 0 
0.649001 1.54138e-06 0 0 0.649001 0 0 0 
0.656365 1.55886e-06 0 0 0.656365 0 0 0 
1.00819 2.39445e-06 0 0 1.00819 0 0 0 
0 0 0 0 0 0 0 0 
0 0 0 0 0 0 0 0 
0 0 0 0 0 0 0 0 
0 0 0 0 0 0 0 0 
0 0 0 0 0 0 0 0 
2.4599 5.84226e-06 2.83725e-08 -1.5036e-06 2.4599 0 0 780.016 
0 0 0 0 0 0 0 0 
17.2466 2.15582e-06 0 0 17.2466 0 0 0 
0 0 0 0 0 0 0 0 
0 0 0 0 0 0 0 0 
3.62152 8.60112e-06 0 0 3.62152 0 0 0 
0 0 0 0 0 0 0 0 
0 0 0 0 0 0 0 0 
0 0 0 0 0 0 0 0 
0 0 0 0 0 0 0 0 
0 0 0 0 0 0 0 0 
1.93993 4.60735e-06 0 0 1.93993 0 0 0 
0 0 0 0 0 0 0 0 
0 0 0 0 0 0 0 0 
0 0 0 0 0 0 0 0 
3.11331 7.39414e-06 0 0 3.11331 0 0 0 
0 0 0 0 0 0 0 0 
0 0 0 0 0 0 0 0 
0 0 0 0 0 0 0 0 
0 0 0 0 0 0 0 0 
0 0 0 0 0 0 0 0 
1.16378 2.76398e-06 0 0 1.16378 0 0 0 
0 0 0 0 0 0 0 0 
0 0 0 0 0 0 0 0 
1.39664 3.31702e-06 -1.80568e-06 1.86767e-06 1.39664 0 0 1970.44 
0 0 0 0 0 0 0 0 
0 0 0 0 0 0 0 0 
0 0 0 0 0 0 0 0 
1.51274 3.59277e-06 -1.45661e-06 6.18651e-07 1.51274 0 0 539.466 
0 0 0 0 0 0 0 0 
0 0 0 0 0 0 0 0 
0 0 0 0 0 0 0 0 
0 0 0 0 0 0 0 0 
0 0 0 0 0 0 0 0 
0 0 0 0 0 0 0 0 
0 0 0 0 0 0 0 0 
0 0 0 0 0 0 0 0 
0 0 0 0 0 0 0 0 
2.19524 5.2137e-06 0 0 2.19524 0 0 0 
0 0 0 0 0 0 0 0 
0 0 0 0 0 0 0 0 
0 0 0 0 0 0 0 0 
0 0 0 0 0 0 0 0 
0 0 0 0 0 0 0 0 
0 0 0 0 0 0 0 0 
0 0 0 0 0 0 0 0 
0.431096 1.02386e-06 4.46635e-07 -1.06712e-06 0.431096 0 0 31.7425 
0 0 0 0 0 0 0 0 
0 0 0 0 0 0 0 0 
0 0 0 0 0 0 0 0 
0 0 0 0 0 0 0 0 
0 0 0 0 0 0 0 0 
0 0 0 0 0 0 0 0 
0 0 0 0 0 0 0 0 
6.65482 1.58052e-05 0 0 6.65482 0 0 0 
0 0 0 0 0 0 0 0 
0 0 0 0 0 0 0 0 
0 0 0 0 0 0 0 0 
0 0 0 0 0 0 0 0 
5.73776 1.36271e-05 0 0 5.73776 0 0 0 
0 0 0 0 0 0 0 0 
0 0 0 0 0 0 0 0 
0 0 0 0 0 0 0 0 
0 0 0 0 0 0 0 0 
0 0 0 0 0 0 0 0 
0 0 0 0 0 0 0 0 
0 0 0 0 0 0 0 0 
0 0 0 0 0 0 0 0 
0 0 0 0 0 0 0 0 
0 0 0 0 0 0 0 0 
0 0 0 0 0 0 0 0 
0 0 0 0 0 0 0 0 
0 0 0 0 0 0 0 0 
0 0 0 0 0 0 0 0 
0 0 0 0 0 0 0 0 
0 0 0 0 0 0 0 0 
0 0 0 0 0 0 0 0 
1.6144 3.8342e-06 0 0 1.6144 0 0 0 
0 0 0 0 0 0 0 0 
0.723874 1.7192e-06 0 0 0.723874 0 0 0 
0 0 0 0 0 0 0 0 
0 0 0 0 0 0 0 0 
0 0 0 0 0 0 0 0 
1.16971 2.77805e-06 0 0 1.16971 0 0 0 
0 0 0 0 0 0 0 0 
1.45161 3.44758e-06 0 0 1.45161 0 0 0 
0 0 0 0 0 0 0 0 
0 0 0 0 0 0 0 0 
0 0 0 0 0 0 0 0 
0 0 0 0 0 0 0 0 
0 0 0 0 0 0 0 0 
0 0 0 0 0 0 0 0 
0 0 0 0 0 0 0 0 
0 0 0 0 0 0 0 0 
0 0 0 0 0 0 0 0 
0 0 0 0 0 0 0 0 
0 0 0 0 0 0 0 0 
0 0 0 0 0 0 0 0 
0 0 0 0 0 0 0 0 
0 0 0 0 0 0 0 0 
0 0 0 0 0 0 0 0 
0.928026 2.20407e-06 0 0 0.928026 0 0 0 
0 0 0 0 0 0 0 0 
0 0 0 0 0 0 0 0 
0 0 0 0 0 0 0 0 
0.691435 1.64216e-06 8.37775e-07 -1.38728e-06 0.691435 0 0 59.549 
1.29391 3.07304e-06 0 0 1.29391 0 0 0 
0 0 0 0 0 0 0 0 
0 0 0 0 0 0 0 0 
0 0 0 0 0 0 0 0 
0 0 0 0 0 0 0 0 
0 0 0 0 0 0 0 0 
0 0 0 0 0 0 0 0 
0 0 0 0 0 0 0 0 
2.41561 5.88807e-06 0 0 2.41561 0 0 0 
0 0 0 0 0 0 0 0 
0 0 0 0 0 0 0 0 
0 0 0 0 0 0 0 0 
0 0 0 0 0 0 0 0 
0.696536 1.65428e-06 0 0 0.696536 0 0 0 
0 0 0 0 0 0 0 0 
0 0 0 0 0 0 0 0 
0 0 0 0 0 0 0 0 
0 0 0 0 0 0 0 0 
0 0 0 0 0 0 0 0 
0 0 0 0 0 0 0 0 
0 0 0 0 0 0 0 0 
0 0 0 0 0 0 0 0 
0 0 0 0 0 0 0 0 
0 0 0 0 0 0 0 0 
0 0 0 0 0 0 0 0 
0 0 0 0 0 0 0 0 
0 0 0 0 0 0 0 0 
0 0 0 0 0 0 0 0 
0 0 0 0 0 0 0 0 
0 0 0 0 0 0 0 0 
0 0 0 0 0 0 0 0 
0 0 0 0 0 0 0 0 
0 0 0 0 0 0 0 0 
0.827858 2.0179e-06 -8.04048e-07 5.23172e-07 0.827858 0 0 265.429 
0 0 0 0 0 0 0 0 
0 0 0 0 0 0 0 0 
0.661264 1.57051e-06 1.4557e-06 -2.28626e-07 0.661264 0 0 2052.12 
0 0 0 0 0 0 0 0 
0.698801 1.70334e-06 0 0 0.698801 0 0 0 
0 0 0 0 0 0 0 0 
0 0 0 0 0 0 0 0 
2.92758 7.13599e-06 0 0 2.92758 0 0 0 
1.01469 2.47332e-06 0 0 1.01469 0 0 0 
0 0 0 0 0 0 0 0 
2.78304 6.60977e-06 0 0 2.78304 0 0 0 
2.3243 5.52024e-06 0 0 2.3243 0 0 0 
1.24156 3.02631e-06 0 0 1.24156 0 0 0 
0 0 0 0 0 0 0 0 
0 0 0 0 0 0 0 0 
1.85744 4.41144e-06 0 0 1.85744 0 0 0 
0 0 0 0 0 0 0 0 
0 0 0 0 0 0 0 0 
0 0 0 0 0 0 0 0 
0 0 0 0 0 0 0 0 
0.26343 6.42111e-07 0 0 0.26343 0 0 0 
0 0 0 0 0 0 0 0 
0.225772 5.36209e-07 0 0 0.225772 0 0 0 
0 0 0 0 0 0 0 0 
0 0 0 0 0 0 0 0 
0 0 0 0 0 0 0 0 
0 0 0 0 0 0 0 0 
6.17951 1.46764e-05 0 0 6.17951 0 0 0 
0 0 0 0 0 0 0 0 
0 0 0 0 0 0 0 0 
0 0 0 0 0 0 0 0 
0 0 0 0 0 0 0 0 
0 0 0 0 0 0 0 0 
0 0 0 0 0 0 0 0 
0 0 0 0 0 0 0 0 
0 0 0 0 0 0 0 0 
0 0 0 0 0 0 0 0 
0 0 0 0 0 0 0 0 
1.08112 2.63523e-06 0 0 1.08112 0 0 0 
0 0 0 0 0 0 0 0 
0 0 0 0 0 0 0 0 
0 0 0 0 0 0 0 0 
0 0 0 0 0 0 0 0 
0.402169 9.55153e-07 0 0 0.402169 0 0 0 
0 0 0 0 0 0 0 0 
0 0 0 0 0 0 0 0 
12.2469 1.53087e-06 -1.73835e-07 2.11311e-06 12.2469 0 0 19819.1 
0 0 0 0 0 0 0 0 
0 0 0 0 0 0 0 0 
0 0 0 0 0 0 0 0 
0 0 0 0 0 0 0 0 
0 0 0 0 0 0 0 0 
0 0 0 0 0 0 0 0 
0 0 0 0 0 0 0 0 
0 0 0 0 0 0 0 0 
0 0 0 0 0 0 0 0 
0.319117 7.77846e-07 0 0 0.319117 0 0 0 
0 0 0 0 0 0 0 0 
0 0 0 0 0 0 0 0 
0 0 0 0 0 0 0 0 
0 0 0 0 0 0 0 0 
0 0 0 0 0 0 0 0 
0.297562 7.2531e-07 0 0 0.297562 0 0 0 
0 0 0 0 0 0 0 0 
0 0 0 0 0 0 0 0 
0 0 0 0 0 0 0 0 
0 0 0 0 0 0 0 0 
0 0 0 0 0 0 0 0 
0 0 0 0 0 0 0 0 
1.76224 4.18534e-06 0 0 1.76224 0 0 0 
1.11548 2.71898e-06 0 0 1.11548 0 0 0 
0 0 0 0 0 0 0 0 
1.61714 3.84072e-06 2.52893e-06 6.7997e-07 1.61714 0 0 1827.62 
0 0 0 0 0 0 0 0 
0.178854 4.35958e-07 0 0 0.178854 0 0 0 
0 0 0 0 0 0 0 0 
0.323179 7.67554e-07 0 0 0.323179 0 0 0 
0 0 0 0 0 0 0 0 
0 0 0 0 0 0 0 0 
0 0 0 0 0 0 0 0 
0 0 0 0 0 0 0 0 
0 0 0 0 0 0 0 0 
0 0 0 0 0 0 0 0 
0 0 0 0 0 0 0 0 
0 0 0 0 0 0 0 0 
1.00929 2.39707e-06 0 0 1.00929 0 0 0 
0 0 0 0 0 0 0 0 
0 0 0 0 0 0 0 0 
0 0 0 0 0 0 0 0 
0 0 0 0 0 0 0 0 
0 0 0 0 0 0 0 0 
0 0 0 0 0 0 0 0 
0 0 0 0 0 0 0 0 
0 0 0 0 0 0 0 0 
0 0 0 0 0 0 0 0 
0 0 0 0 0 0 0 0 
0 0 0 0 0 0 0 0 
0.320549 7.81344e-07 0 0 0.320549 0 0 0 
0 0 0 0 0 0 0 0 
6.94338 1.69244e-05 0 0 6.94338 0 0 0 
0 0 0 0 0 0 0 0 
0 0 0 0 0 0 0 0 
0 0 0 0 0 0 0 0 
1.58056 3.85261e-06 0 0 1.58056 0 0 0 
0 0 0 0 0 0 0 0 
0 0 0 0 0 0 0 0 
0.26225 -2.23103e-05 -0.000153416 5.91559e-06 0 -0.26225 0 87.2939 
0.482598 -1.3087e-05 -0.00028232 -2.48943e-06 0 -0.482598 0 64.0751 
2.25357 -0.000296485 0.000262719 -0.000268007 -1.12679 1.38003 -1.38003 711.622 
2.61557 -0.000372683 0.000298558 -0.0002941 -1.30779 1.6017 -1.60171 1089.37 
0.0567174 -0.000458003 0.000502764 0.000531952 0 0.0401052 0.0401052 63.8558 
0.0590698 -0.000991346 0.00119376 0.00119959 1.40124e-09 0.0417687 0.0417687 64.567 
0.0465518 -0.000216377 0.000196242 0.000212066 0 0.0329171 0.0329171 68.7197 
0.0644159 -0.000424686 0.000952574 -7.10616e-06 0 0.0644159 0 53.1503 
0.0487985 -0.000389306 0.000721626 -4.13891e-06 0 0.0487985 0 48.9943 
0.0585997 -0.000358986 -8.24624e-06 0.000866565 0 0 0.0585997 44.186 
0.0551649 -0.000517783 -8.08271e-07 0.000815771 0 0 0.0551649 65.1704 
0.0636547 -0.000992686 0.00126409 0.00131502 0 0.0450107 0.0450107 61.7771 
0.0581238 -0.000329581 0.000534575 0.000525797 -8.48521e-10 0.0410997 0.0410997 48.887 
0.0430338 -0.00018252 0.000191396 0.000186055 0 0.0304295 0.0304295 54.2733 
2.2404 -0.000304238 -0.000260312 0.000259565 -1.1202 -1.37196 1.37196 892.466 
2.51866 -0.000346588 -0.000288473 0.000292258 -1.25933 -1.54235 1.54237 993.761 
0.0565064 -0.000980394 -0.001136 -0.00115348 0 -0.0399561 -0.0399561 61.4473 
0.0563828 -0.000439322 -0.00050062 -0.000527991 2.9705e-09 -0.0398686 -0.0398686 63.7098 
0.0510828 -0.000151146 -0.000215812 -0.000232238 0 -0.036121 -0.036121 43.294 
0.0692743 -0.000394313 -0.00102442 7.5578e-06 0 -0.0692743 0 49.0195 
0.0571705 -0.000497974 -0.00084543 -1.18833e-06 0 -0.0571705 0 61.3383 
0.0654163 -0.000494329 4.21564e-07 -0.000967368 0 0 -0.0654163 63.0257 
0.05848 -0.000456951 1.30789e-05 -0.000864795 0 0 -0.05848 57.2754 
0.0668016 -0.000365817 -0.00061746 -0.000601225 0 -0.0472358 -0.0472359 51.5381 
0.0579628 -0.000869587 -0.00118358 -0.00116491 -3.80999e-10 -0.0409859 -0.0409859 55.3673 
0.0580456 -0.000220834 -0.000252357 -0.000256763 0 -0.0410444 -0.0410444 64.5189 
0.368076 -2.81868e-05 1.65023e-06 -0.000215325 0 0 -0.368076 100.093 
0.560268 -3.463e-05 -1.43023e-06 -0.000327757 0 0 -0.560268 126.005 
0.320179 -2.14538e-05 -0.000182502 5.97737e-07 0 -0.320179 0 96.4273 
0.519833 -5.05133e-05 -0.000296305 4.2636e-06 0 -0.519833 0 161.207 
0.436074 -3.64199e-05 -7.98978e-06 0.000255103 0 0 0.436074 137 
0.494329 -2.68921e-05 -4.27429e-06 0.000289182 0 0 0.494329 121.351 
0.516691 -2.38205e-05 0.000294514 5.86112e-06 0 0.516691 0 121.53 
0.316148 -2.43074e-05 0.000180204 -3.78965e-06 0 0.316148 0 78.4105 
0.248275 -1.97943e-05 0.000141517 9.39231e-07 0 0.248275 0 85.2675 
0.279395 -3.31909e-05 0.000159255 7.87089e-06 0 0.279395 0 107.474 
0.258733 -1.14631e-05 -5.11131e-06 -0.000147478 0 0 -0.258733 58.211 
0.177951 -1.62821e-05 3.33095e-06 -0.000101432 0 0 -0.177951 55.4865 
0.217185 -2.96771e-05 -0.000123795 1.09427e-05 0 -0.217185 0 95.6204 
0.270544 -2.29922e-05 -0.00015421 -2.65975e-06 0 -0.270544 0 117.615 
0.240291 -1.21707e-05 -6.19473e-06 0.000136966 0 -4.71122e-08 0.240291 40.5659 
0.153832 -3.64313e-05 5.26286e-06 8.76843e-05 0 -3.01608e-08 0.153832 123.968 
0.319847 -2.71176e-05 0.000182313 3.27591e-06 0 0.319847 0 78.8221 
0.332157 -2.07809e-05 0.000189329 5.42036e-06 0 0.332157 0 99.3101 
0.374066 -5.15135e-05 6.46893e-06 -0.000213218 0 0 -0.374066 177.499 
0.359325 -7.9433e-06 -3.33218e-06 -0.000204815 0 0 -0.359325 37.3854 
0.312257 -1.50157e-05 -0.000177987 5.64404e-06 0 -0.312257 0 142.029 
0.383136 -5.69918e-05 -0.000218388 -9.97506e-06 0 -0.383136 0 189.251 
0.367399 -1.34265e-05 4.33417e-06 0.000209417 0 0 0.367399 48.1427 
0.362536 -1.95114e-05 -3.30583e-06 0.000206646 0 0 0.362536 77.3903 
0.338796 -2.91812e-05 -0.000193114 1.54889e-06 0 -0.338796 0 111.426 
0.522942 -4.56679e-05 -0.000298077 -6.84666e-06 0 -0.522942 0 184.248 
0.427809 -3.85095e-05 -2.13998e-06 0.000243851 0 0 0.427809 125.441 
0.553858 -2.53771e-05 -9.51964e-07 0.000315699 0 0 0.553858 103.864 
0.371554 -1.11531e-05 0.000211786 -4.65229e-06 0 0.371554 0 37.0451 
0.47215 -3.10149e-05 0.000269125 -6.88806e-06 0 0.47215 0 140.125 
0.34043 -2.4011e-05 7.92483e-06 -0.000194045 0 0 -0.34043 99.9969 
0.630809 -4.86582e-05 -1.687e-06 -0.000359561 0 0 -0.630809 153.439 
0.615008 -6.4864e-05 0.000350555 -8.00442e-06 0 0.615008 0 206.113 
0.660153 -2.25885e-05 0.000376287 1.65661e-06 0 0.660153 0 61.2482 
0.534688 -5.29142e-05 1.90024e-05 -0.000304772 0 0 -0.534688 181.405 
0.54321 -2.82176e-05 8.97215e-06 -0.00030963 0 0 -0.54321 109.455 
0.589374 -2.19071e-05 -0.000335943 -1.53973e-06 0 -0.589374 0 82.548 
0.758802 -4.77969e-05 -0.000432517 -7.48772e-07 0 -0.758802 0 131.618 
0.53834 -5.28111e-05 1.90796e-05 0.000306854 0 0 0.53834 168.081 
0.556645 -2.94493e-05 -1.3306e-05 0.000317288 0 0 0.556645 111.177 
0.438956 -2.4334e-05 0.000250205 2.58754e-06 0 0.438956 0 79.5465 
0.455011 -3.83778e-05 0.000259356 1.66253e-05 0 0.455011 0 142.48 
0.41659 -4.36567e-05 3.33665e-06 -0.000237456 0 0 -0.41659 170.206 
0.599984 -2.94418e-05 7.55512e-08 -0.000341991 0 0 -0.599984 100.643 
0.413287 -2.4056e-05 -0.000235574 -1.13918e-05 0 -0.413287 0 108.765 