ITEM: TIMESTEP
220
ITEM: NUMBER OF SURFS
6916
ITEM: BOX BOUNDS oo rr rr
-20 20
-20 20
-20 20
ITEM: SURFS f_save[1] f_save[2] f_save[3] f_save[4] f_save[5] f_save[6] f_save[7] f_save[8] 
2.61311e-18 -1.96065e-19 0 0 -2.61311e-18 0 0 0 
2.07163e-19 0 0 -6.21702e-19 0 0 -2.07163e-19 0 
2.22999e-22 1.67307e-23 0 0 2.22999e-22 0 0 0 
1.44475e-18 -3.52156e-20 0 0 -1.44475e-18 0 0 1.33421e-30 
1.41057e-18 -1.76322e-21 0 0 -1.41057e-18 0 0 0 
1.29742e-18 -1.62179e-21 0 0 -1.29742e-18 0 0 0 
1.39125e-18 -1.73906e-21 0 0 -1.39125e-18 0 0 0 
1.41692e-18 -3.45375e-20 0 0 -1.41692e-18 0 0 1.30483e-30 
1.41808e-18 -3.36794e-20 0 0 -1.41808e-18 0 0 0 
1.46371e-18 -3.4763e-20 0 0 -1.46371e-18 0 0 0 
1.54915e-18 -3.67925e-20 0 0 -1.54915e-18 0 0 0 
1.52652e-18 -3.62548e-20 0 0 -1.52652e-18 0 0 0 
1.50232e-18 -3.66191e-20 0 0 -1.50232e-18 0 0 0 
1.48543e-18 -3.52789e-20 0 0 -1.48543e-18 0 0 0 
1.44637e-18 -3.43512e-20 0 0 -1.44637e-18 0 0 0 
1.45425e-18 -3.54474e-20 0 0 -1.45425e-18 0 0 0 
1.45482e-18 -3.54612e-20 0 0 -1.45482e-18 0 0 1.34263e-30 
1.41792e-18 -3.36757e-20 0 0 -1.41792e-18 0 0 1.31195e-30 
1.43358e-18 -3.40475e-20 0 0 -1.43358e-18 0 0 0 
1.4369e-18 -3.50245e-20 0 0 -1.4369e-18 0 0 1.32371e-30 
1.41522e-18 -3.36115e-20 0 0 -1.41522e-18 0 0 0 
1.48631e-18 -3.52998e-20 0 0 -1.48631e-18 0 0 0 
1.47007e-18 -3.58329e-20 0 0 -1.47007e-18 0 0 0 
1.45943e-18 -3.46615e-20 0 0 -1.45943e-18 0 0 0 
1.51698e-18 -3.60282e-20 0 0 -1.51698e-18 0 0 0 
1.46915e-18 -3.48923e-20 0 0 -1.46915e-18 0 0 0 
1.60688e-18 -2.00861e-21 0 0 -1.60688e-18 0 0 0 
1.44125e-18 -3.42297e-20 0 0 -1.44125e-18 0 0 0 
1.43088e-18 -3.39835e-20 0 0 -1.43088e-18 0 0 0 
1.63671e-18 -2.04588e-21 0 0 -1.63671e-18 0 0 0 
1.37987e-18 -3.27718e-20 0 0 -1.37987e-18 0 0 0 
1.413e-18 -3.35588e-20 0 0 -1.413e-18 0 0 0 
1.65232e-18 -2.06541e-21 0 0 -1.65232e-18 0 0 0 
1.50709e-18 -3.67352e-20 0 0 -1.50709e-18 0 0 1.3855e-30 
1.43792e-18 -3.41508e-20 0 0 -1.43792e-18 0 0 0 
1.47586e-18 -1.84484e-21 0 0 -1.47586e-18 0 0 0 
1.46548e-18 -3.57209e-20 0 0 -1.46548e-18 0 0 1.34687e-30 
1.40801e-18 -3.34404e-20 0 0 -1.40801e-18 0 0 0 
1.44559e-18 -1.807e-21 0 0 -1.44559e-18 0 0 0 
1.40178e-18 -3.32924e-20 0 0 -1.40178e-18 0 0 0 
1.40203e-18 -3.41746e-20 0 0 -1.40203e-18 0 0 0 
1.85301e-18 -2.31627e-21 0 0 -1.85301e-18 0 0 0 
1.42044e-18 -3.37355e-20 0 0 -1.42044e-18 0 0 0 
1.45099e-18 -3.53678e-20 0 0 -1.45099e-18 0 0 0 
1.37075e-18 -1.71344e-21 0 0 -1.37075e-18 0 0 0 
1.48933e-18 -3.53718e-20 0 0 -1.48933e-18 0 0 0 
1.43123e-18 -3.39918e-20 0 0 -1.43123e-18 0 0 0 
1.69422e-18 -2.11779e-21 0 0 -1.69422e-18 0 0 0 
1.21088e-18 -1.51361e-21 0 0 -1.21088e-18 0 0 0 
1.3581e-18 -1.69764e-21 0 0 -1.3581e-18 0 0 0 
1.44302e-18 -3.4272e-20 0 0 -1.44302e-18 0 0 1.33448e-30 
1.44204e-18 -3.42484e-20 0 0 -1.44204e-18 0 0 0 
1.43896e-18 -3.41755e-20 0 0 -1.43896e-18 0 0 1.32234e-30 
1.63892e-18 -2.04865e-21 0 0 -1.63892e-18 0 0 0 
1.42382e-18 -3.38157e-20 0 0 -1.42382e-18 0 0 0 
1.55607e-18 -3.69566e-20 0 0 -1.55607e-18 0 0 0 
1.56627e-18 -3.71989e-20 0 0 -1.56627e-18 0 0 0 
1.53332e-18 -1.91665e-21 0 0 -1.53332e-18 0 0 0 
1.52617e-18 -3.62464e-20 0 0 -1.52617e-18 0 0 0 
1.51045e-18 -3.58732e-20 0 0 -1.51045e-18 0 0 0 
1.45011e-18 -3.44401e-20 0 0 -1.45011e-18 0 0 0 
1.6645e-18 -2.08065e-21 0 0 -1.6645e-18 0 0 0 
1.42939e-18 -3.39481e-20 0 0 -1.42939e-18 0 0 0 
1.38688e-18 -3.38051e-20 0 0 -1.38688e-18 0 0 1.28124e-30 
1.63502e-18 -2.04379e-21 0 0 -1.63502e-18 0 0 0 
1.36702e-18 -3.24667e-20 0 0 -1.36702e-18 0 0 0 
1.46584e-18 -3.48136e-20 0 0 -1.46584e-18 0 0 0 
1.61945e-18 -2.02432e-21 0 0 -1.61945e-18 0 0 0 
1.41397e-18 -3.35819e-20 0 0 -1.41397e-18 0 0 0 
1.42861e-18 -3.39295e-20 0 0 -1.42861e-18 0 0 0 
1.53164e-18 -1.91454e-21 0 0 -1.53164e-18 0 0 0 
1.44579e-18 -3.43375e-20 0 0 -1.44579e-18 0 0 0 
1.39649e-18 -3.31667e-20 0 0 -1.39649e-18 0 0 0 
1.41585e-18 -1.76981e-21 0 0 -1.41585e-18 0 0 0 
1.61478e-18 -2.01849e-21 0 0 -1.61478e-18 0 0 0 
1.46699e-18 -3.4841e-20 0 0 -1.46699e-18 0 0 0 
1.50183e-18 -3.56685e-20 0 0 -1.50183e-18 0 0 0 
1.39484e-18 -1.74355e-21 0 0 -1.39484e-18 0 0 0 
1.41813e-18 -3.36806e-20 0 0 -1.41813e-18 0 0 0 
1.4184e-18 -3.3687e-20 0 0 -1.4184e-18 0 0 0 
1.51437e-18 -3.59663e-20 0 0 -1.51437e-18 0 0 0 
1.48905e-18 -3.5365e-20 0 0 -1.48905e-18 0 0 0 
1.50317e-18 -3.57004e-20 0 0 -1.50317e-18 0 0 0 
1.47159e-18 -3.587e-20 0 0 -1.47159e-18 0 0 0 
1.45707e-18 -3.64268e-20 0 0 -1.45707e-18 0 0 0 
1.45726e-18 -3.64315e-20 0 0 -1.45726e-18 0 0 0 
1.39722e-18 -3.49304e-20 0 0 -1.39722e-18 0 0 0 
1.39161e-18 -3.47903e-20 0 0 -1.39161e-18 0 0 0 
1.4483e-18 -1.24554e-18 0 0 -1.4483e-18 0 0 1.33585e-30 
1.45153e-18 -6.89475e-19 0 0 -1.45153e-18 0 0 1.33819e-30 
1.4479e-18 -6.87754e-19 0 0 -1.4479e-18 0 0 0 
1.44526e-18 -6.86496e-19 0 0 -1.44526e-18 0 0 0 
1.44847e-18 -7.06128e-19 0 0 -1.44847e-18 0 0 0 
1.45376e-18 -1.25024e-18 0 0 -1.45376e-18 0 0 1.34014e-30 
1.45324e-18 -6.90291e-19 0 0 -1.45324e-18 0 0 0 
1.44893e-18 -6.88242e-19 0 0 -1.44893e-18 0 0 0 
1.45632e-18 -6.91751e-19 0 0 -1.45632e-18 0 0 0 
1.45286e-18 -7.08267e-19 0 0 -1.45286e-18 0 0 0 
1.48365e-18 -3.70913e-20 0 0 -1.48365e-18 0 0 1.36706e-30 
1.38303e-18 -3.45759e-20 0 0 -1.38303e-18 0 0 0 
1.5103e-18 -3.77575e-20 0 0 -1.5103e-18 0 0 1.39161e-30 
4.08808e-21 0 0 -2.39153e-20 0 0 -4.08808e-21 0 
3.12086e-20 3.90107e-23 0 0 3.12086e-20 0 0 0 
3.08323e-20 7.32269e-22 0 0 3.08323e-20 0 0 0 
0 0 0 0 0 0 0 0 
2.43525e-20 5.78372e-22 0 0 2.43525e-20 0 0 0 
5.16427e-20 1.22651e-21 0 0 5.16427e-20 0 0 0 
1.62042e-20 3.84851e-22 0 0 1.62042e-20 0 0 0 
5.01722e-20 1.19159e-21 0 0 5.01722e-20 0 0 0 
1.46063e-20 3.469e-22 0 0 1.46063e-20 0 0 0 
5.02055e-20 1.19238e-21 0 0 5.02055e-20 0 0 0 
5.45184e-20 6.64442e-22 0 0 5.45184e-20 0 0 0 
1.26139e-20 2.99581e-22 0 0 1.26139e-20 0 0 1.13344e-32 
2.44768e-20 5.81325e-22 0 0 2.44768e-20 0 0 0 
2.56114e-20 6.08271e-22 0 0 2.56114e-20 0 0 0 
5.97345e-20 1.41869e-21 0 0 5.97345e-20 0 0 0 
2.15807e-20 5.1254e-22 0 0 2.15807e-20 0 0 0 
3.35333e-20 7.96415e-22 0 0 3.35333e-20 0 0 0 
4.15937e-20 9.87852e-22 0 0 4.15937e-20 0 0 0 
2.33663e-20 2.92079e-23 0 0 2.33663e-20 0 0 0 
3.74792e-20 8.90133e-22 0 0 3.74792e-20 0 0 0 
2.50829e-20 5.95717e-22 0 0 2.50829e-20 0 0 0 
2.28162e-20 2.85202e-23 0 0 2.28162e-20 0 0 0 
2.13059e-20 5.06016e-22 0 0 2.13059e-20 0 0 0 
2.99175e-20 7.10541e-22 0 0 2.99175e-20 0 0 0 
1.59584e-20 1.99479e-23 0 0 1.59584e-20 0 0 0 
1.27939e-20 3.03856e-22 0 0 1.27939e-20 0 0 0 
1.09194e-20 2.59337e-22 0 0 1.09194e-20 0 0 0 
6.03359e-20 7.54199e-23 0 0 6.03359e-20 0 0 0 
6.05095e-21 7.56372e-24 0 0 6.05095e-21 0 0 0 
1.93822e-20 4.60328e-22 0 0 1.93822e-20 0 0 0 
1.81946e-20 4.32121e-22 0 0 1.81946e-20 0 0 0 
3.08132e-20 7.31815e-22 0 0 3.08132e-20 0 0 0 
3.18021e-20 7.55299e-22 0 0 3.18021e-20 0 0 0 
0 0 0 0 0 0 0 0 
1.81357e-20 4.30722e-22 0 0 1.81357e-20 0 0 0 
2.0765e-20 4.93169e-22 0 0 2.0765e-20 0 0 0 
6.74371e-21 8.42965e-24 0 0 6.74371e-21 0 0 0 
4.37132e-20 5.46416e-23 0 0 4.37132e-20 0 0 0 
2.87153e-20 6.81988e-22 0 0 2.87153e-20 0 0 0 
2.2972e-20 5.45584e-22 0 0 2.2972e-20 0 0 0 
2.48945e-20 5.91245e-22 0 0 2.48945e-20 0 0 0 
1.95235e-20 2.44044e-23 0 0 1.95235e-20 0 0 0 
1.81516e-20 4.311e-22 0 0 1.81516e-20 0 0 0 
2.08896e-20 4.96128e-22 0 0 2.08896e-20 0 0 0 
5.57449e-20 6.96812e-23 0 0 5.57449e-20 0 0 0 
5.24636e-20 1.24601e-21 0 0 5.24636e-20 0 0 0 
2.76869e-20 6.57563e-22 0 0 2.76869e-20 0 0 0 
3.97828e-20 9.44843e-22 0 0 3.97828e-20 0 0 0 
2.6662e-20 3.33275e-23 0 0 2.6662e-20 0 0 0 
7.85336e-21 1.91426e-22 0 0 7.85336e-21 0 0 0 
2.16993e-20 2.71242e-23 0 0 2.16993e-20 0 0 0 
3.27739e-20 7.98864e-22 0 0 3.27739e-20 0 0 3.01684e-32 
4.5572e-20 1.08234e-21 0 0 4.5572e-20 0 0 0 
4.42335e-20 1.07819e-21 0 0 4.42335e-20 0 0 0 
5.10229e-20 1.24368e-21 0 0 5.10229e-20 0 0 4.75422e-32 
2.39204e-20 5.68112e-22 0 0 2.39204e-20 0 0 0 
0 0 0 0 0 0 0 0 
1.52461e-20 3.71625e-22 0 0 1.52461e-20 0 0 0 
7.39476e-21 9.24352e-24 0 0 7.39476e-21 0 0 0 
8.42543e-21 1.05318e-23 0 0 8.42543e-21 0 0 0 
3.77613e-20 4.72017e-23 0 0 3.77613e-20 0 0 0 
5.90357e-20 7.37948e-23 0 0 5.90357e-20 0 0 0 
0 0 0 0 0 0 0 0 
6.15547e-21 7.6944e-24 0 0 6.15547e-21 0 0 0 
2.1309e-20 5.19407e-22 0 0 2.1309e-20 0 0 0 
3.72736e-20 8.85251e-22 0 0 3.72736e-20 0 0 0 
3.44056e-20 4.30071e-23 0 0 3.44056e-20 0 0 0 
2.85283e-20 6.95377e-22 0 0 2.85283e-20 0 0 0 
3.81083e-20 9.05076e-22 0 0 3.81083e-20 0 0 0 
3.69882e-20 4.62354e-23 0 0 3.69882e-20 0 0 0 
3.11758e-20 7.5991e-22 0 0 3.11758e-20 0 0 0 
1.25372e-20 2.9776e-22 0 0 1.25372e-20 0 0 1.12883e-32 
1.56249e-20 3.80858e-22 0 0 1.56249e-20 0 0 0 
1.33153e-20 3.1624e-22 0 0 1.33153e-20 0 0 1.20485e-32 
2.26928e-20 5.38956e-22 0 0 2.26928e-20 0 0 0 
5.7221e-20 1.359e-21 0 0 5.7221e-20 0 0 0 
4.28072e-20 1.01668e-21 0 0 4.28072e-20 0 0 0 
1.5116e-20 3.59005e-22 0 0 1.5116e-20 0 0 0 
1.60049e-20 3.80119e-22 0 0 1.60049e-20 0 0 1.43753e-32 
3.21562e-20 7.83806e-22 0 0 3.21562e-20 0 0 2.94501e-32 
1.49582e-20 3.64608e-22 0 0 1.49582e-20 0 0 0 
1.14773e-19 7.17333e-23 0 0 1.14773e-19 0 0 0 
3.29873e-20 4.02033e-22 0 0 3.29873e-20 0 0 0 
3.53702e-19 -3.71385e-19 -4.54852e-19 -4.54852e-19 -1.76851e-19 -2.16597e-19 -2.16597e-19 -1.19212e-31 
3.74336e-21 0 0 -5.53563e-19 0 0 -3.74336e-21 0 
2.54387e-21 0 5.15353e-19 -5.15353e-19 0 1.79879e-21 -1.79879e-21 -1.32903e-34 
3.54072e-19 -3.71773e-19 4.55328e-19 4.55328e-19 -1.77036e-19 2.16824e-19 2.16824e-19 -1.19834e-31 
3.75774e-21 0 0 5.5569e-19 0 0 3.75774e-21 0 
3.02003e-21 0 -2.75478e-19 2.75478e-19 0 -2.13549e-21 2.13549e-21 1.8916e-34 
4.45316e-21 0 -2.6051e-20 0 0 -4.45316e-21 0 0 
4.41674e-21 0 2.58379e-20 0 0 4.41674e-21 0 0 
4.05289e-21 0 0 -2.31014e-20 0 0 -4.05289e-21 0 
4.20126e-21 0 0 2.39472e-20 0 0 4.20126e-21 0 
4.16279e-21 0 0 -2.37279e-20 0 0 -4.16279e-21 0 
4.18834e-21 0 0 2.38736e-20 0 0 4.18834e-21 0 
4.39549e-21 0 0 2.50543e-20 0 0 4.39549e-21 0 
4.3429e-21 0 0 -2.47545e-20 0 0 -4.3429e-21 0 
4.06211e-21 0 0 -2.31541e-20 0 0 -4.06211e-21 0 
4.01859e-21 0 0 2.29059e-20 0 0 4.01859e-21 0 
4.15982e-21 0 0 -2.3711e-20 0 0 -4.15982e-21 0 
4.16105e-21 0 0 2.3718e-20 0 0 4.16105e-21 0 
4.44406e-21 0 -2.53312e-20 0 0 -4.44406e-21 0 0 
4.22334e-21 0 2.4073e-20 0 0 4.22334e-21 0 0 
4.60847e-21 0 0 -2.62683e-20 0 0 -4.60847e-21 0 
4.71769e-21 0 0 2.68908e-20 0 0 4.71769e-21 0 
4.59089e-21 0 -2.61681e-20 0 0 -4.59089e-21 0 0 
4.63015e-21 0 2.63918e-20 0 0 4.63015e-21 0 0 
4.30454e-21 0 -2.45359e-20 0 0 -4.30454e-21 0 0 
4.41625e-21 0 2.51726e-20 0 0 4.41625e-21 0 0 
4.61123e-21 0 2.69757e-20 0 0 4.61123e-21 0 0 
4.60209e-21 0 -2.69222e-20 0 0 -4.60209e-21 0 0 
4.47523e-21 0 2.61801e-20 0 0 4.47523e-21 0 0 
4.45637e-21 0 -2.60698e-20 0 0 -4.45637e-21 0 0 
4.36062e-21 0 -2.48555e-20 0 0 -4.36062e-21 0 0 
4.13564e-21 0 2.35731e-20 0 0 4.13564e-21 0 0 
4.02413e-21 0 2.35412e-20 0 0 4.02413e-21 0 0 
4.11227e-21 0 -1.20284e-20 0 0 -4.11227e-21 0 0 
4.01358e-21 0 0 1.17397e-20 0 0 4.01358e-21 0 
5.32091e-21 0 0 -3.03292e-20 0 0 -5.32091e-21 0 
5.15153e-21 0 0 2.93637e-20 0 0 5.15153e-21 0 
4.46819e-21 0 0 2.61389e-20 0 0 4.46819e-21 0 
4.35967e-21 0 0 -2.55041e-20 0 0 -4.35967e-21 0 
4.34067e-21 0 -2.47418e-20 0 0 -4.34067e-21 0 0 
4.33124e-21 0 2.46881e-20 0 0 4.33124e-21 0 0 
4.73899e-21 0 -2.70122e-20 0 0 -4.73899e-21 0 0 
4.61803e-21 0 2.63228e-20 0 0 4.61803e-21 0 0 
4.38358e-21 0 0 2.49864e-20 0 0 4.38358e-21 0 
4.46834e-21 0 0 -2.54696e-20 0 0 -4.46834e-21 0 
4.70731e-21 0 -2.68317e-20 0 0 -4.70731e-21 0 0 
4.62485e-21 0 2.63617e-20 0 0 4.62485e-21 0 0 
4.40535e-21 0 0 2.51105e-20 0 0 4.40535e-21 0 
4.4835e-21 0 0 -2.5556e-20 0 0 -4.4835e-21 0 
4.27575e-21 0 -2.43718e-20 0 0 -4.27575e-21 0 0 
4.24016e-21 0 2.41689e-20 0 0 4.24016e-21 0 0 
4.77432e-21 0 0 2.72136e-20 0 0 4.77432e-21 0 
4.93172e-21 0 0 -2.81108e-20 0 0 -4.93172e-21 0 
4.60065e-21 0 2.62237e-20 0 0 4.60065e-21 0 0 
4.61154e-21 0 -2.62858e-20 0 0 -4.61154e-21 0 0 
4.29224e-21 0 2.44657e-20 0 0 4.29224e-21 0 0 
4.22288e-21 0 -2.40704e-20 0 0 -4.22288e-21 0 0 
4.75691e-21 0 0 -2.71144e-20 0 0 -4.75691e-21 0 
4.69495e-21 0 0 2.67612e-20 0 0 4.69495e-21 0 
4.63695e-21 0 0 2.64306e-20 0 0 4.63695e-21 0 
4.49494e-21 0 0 -2.56212e-20 0 0 -4.49494e-21 0 
5.26369e-21 0 0 3.0003e-20 0 0 5.26369e-21 0 
4.72668e-21 0 0 -2.69421e-20 0 0 -4.72668e-21 0 
4.70422e-21 0 -2.68141e-20 0 0 -4.70422e-21 0 0 
4.60359e-21 0 2.62405e-20 0 0 4.60359e-21 0 0 
4.49625e-21 0 -2.56286e-20 0 0 -4.49625e-21 0 0 
4.39272e-21 0 2.50385e-20 0 0 4.39272e-21 0 0 
3.96124e-21 0 2.31733e-20 0 0 3.96124e-21 0 0 
3.93128e-21 0 0 -2.2998e-20 0 0 -3.93128e-21 0 
4.32048e-21 0 -2.52748e-20 0 0 -4.32048e-21 0 0 
4.30182e-21 0 2.51657e-20 0 0 4.30182e-21 0 0 
4.69002e-21 0 2.74366e-20 0 0 4.69002e-21 0 0 
4.62456e-21 0 -2.70537e-20 0 0 -4.62456e-21 0 0 
4.34782e-21 0 0 -2.54348e-20 0 0 -4.34782e-21 0 
4.44374e-21 0 0 2.59959e-20 0 0 4.44374e-21 0 
4.44636e-21 0 0 2.60112e-20 0 0 4.44636e-21 0 
4.36027e-21 0 0 -2.55076e-20 0 0 -4.36027e-21 0 
4.8386e-21 0 -2.758e-20 0 0 -4.8386e-21 0 0 
5.17238e-21 0 2.94826e-20 0 0 5.17238e-21 0 0 
4.53075e-21 0 0 -2.65049e-20 0 0 -4.53075e-21 0 
4.6252e-21 0 0 2.70574e-20 0 0 4.6252e-21 0 
3.9183e-21 0 -1.1461e-20 0 0 -3.9183e-21 0 0 
4.45334e-21 0 -2.60521e-20 0 0 -4.45334e-21 0 0 
4.42132e-21 0 2.58647e-20 0 0 4.42132e-21 0 0 
4.29584e-21 0 -2.51307e-20 0 0 -4.29584e-21 0 0 
4.32184e-21 0 2.52828e-20 0 0 4.32184e-21 0 0 
4.40953e-21 0 -2.51343e-20 0 0 -4.40953e-21 0 0 
4.5724e-21 0 2.60627e-20 0 0 4.5724e-21 0 0 
4.43424e-21 0 0 -2.59403e-20 0 0 -4.43424e-21 0 
4.42035e-21 0 0 2.5859e-20 0 0 4.42035e-21 0 
4.94398e-21 0 2.81807e-20 0 0 4.94398e-21 0 0 
4.79246e-21 0 -2.7317e-20 0 0 -4.79246e-21 0 0 
4.21357e-21 0 0 2.40173e-20 0 0 4.21357e-21 0 
4.1641e-21 0 0 -2.37353e-20 0 0 -4.1641e-21 0 
3.94713e-21 0 0 2.30907e-20 0 0 3.94713e-21 0 
4.07767e-21 0 1.19272e-20 0 0 4.07767e-21 0 0 
4.65209e-21 0 -2.65169e-20 0 0 -4.65209e-21 0 0 
4.49292e-21 0 2.56096e-20 0 0 4.49292e-21 0 0 
4.34993e-21 0 2.47946e-20 0 0 4.34993e-21 0 0 
4.36105e-21 0 -2.4858e-20 0 0 -4.36105e-21 0 0 
4.12577e-21 0 2.35169e-20 0 0 4.12577e-21 0 0 
4.27182e-21 0 -2.43494e-20 0 0 -4.27182e-21 0 0 
4.26946e-21 0 0 -2.43359e-20 0 0 -4.26946e-21 0 
4.25711e-21 0 0 2.42655e-20 0 0 4.25711e-21 0 
4.94319e-21 0 2.81762e-20 0 0 4.94319e-21 0 0 
4.76316e-21 0 -2.715e-20 0 0 -4.76316e-21 0 0 
4.23605e-21 0 0 -2.41455e-20 0 0 -4.23605e-21 0 
4.22845e-21 0 0 2.41022e-20 0 0 4.22845e-21 0 
4.21479e-21 0 2.40243e-20 0 0 4.21479e-21 0 0 
4.29464e-21 0 -2.44795e-20 0 0 -4.29464e-21 0 0 
4.488e-21 0 -2.55816e-20 0 0 -4.488e-21 0 0 
4.29418e-21 0 2.44768e-20 0 0 4.29418e-21 0 0 
4.29924e-21 0 0 -2.45056e-20 0 0 -4.29924e-21 0 
4.1765e-21 0 0 2.3806e-20 0 0 4.1765e-21 0 
4.34916e-21 0 0 -2.47902e-20 0 0 -4.34916e-21 0 
4.36075e-21 0 0 2.48563e-20 0 0 4.36075e-21 0 
4.06041e-21 0 0 2.31443e-20 0 0 4.06041e-21 0 
4.11654e-21 0 0 -2.34643e-20 0 0 -4.11654e-21 0 
4.12149e-21 0 -2.34925e-20 0 0 -4.12149e-21 0 0 
4.13216e-21 0 2.35533e-20 0 0 4.13216e-21 0 0 
3.92079e-21 0 0 2.23485e-20 0 0 3.92079e-21 0 
4.03585e-21 0 0 -2.30043e-20 0 0 -4.03585e-21 0 
4.31605e-21 0 0 -2.46015e-20 0 0 -4.31605e-21 0 
4.52227e-21 0 0 2.57769e-20 0 0 4.52227e-21 0 
4.30755e-21 0 2.4553e-20 0 0 4.30755e-21 0 0 
4.34994e-21 0 -2.47946e-20 0 0 -4.34994e-21 0 0 
4.15473e-21 0 -2.3682e-20 0 0 -4.15473e-21 0 0 
4.19738e-21 0 2.39251e-20 0 0 4.19738e-21 0 0 
4.30344e-21 0 0 2.45296e-20 0 0 4.30344e-21 0 
4.27377e-21 0 0 -2.43605e-20 0 0 -4.27377e-21 0 
4.47979e-21 0 2.55348e-20 0 0 4.47979e-21 0 0 
4.54948e-21 0 -2.59321e-20 0 0 -4.54948e-21 0 0 
4.25958e-21 0 0 2.42796e-20 0 0 4.25958e-21 0 
4.27553e-21 0 0 -2.43705e-20 0 0 -4.27553e-21 0 
4.89162e-21 -6.62991e-24 0 -3.48528e-21 -9.30513e-24 0 -4.89161e-21 -1.78924e-34 
1.19876e-20 -1.4696e-22 -4.93798e-23 -2.2085e-21 -7.95726e-22 -2.67372e-22 -1.19582e-20 2.4589e-34 
7.70947e-21 -5.52576e-23 -2.43082e-23 -1.42585e-21 -2.98506e-22 -1.31315e-22 -7.70257e-21 4.16753e-34 
1.39763e-20 -1.72116e-22 -1.15145e-22 -2.52923e-21 -9.47929e-22 -6.34161e-22 -1.39297e-20 -1.49161e-33 
5.33757e-21 -6.35235e-25 -1.90884e-27 -1.33439e-21 -2.54094e-24 -7.63534e-27 -5.33757e-21 -1.91936e-33 
5.79937e-21 -8.21622e-24 -4.30867e-23 -1.39299e-21 -3.41892e-23 -1.79292e-22 -5.7965e-21 -6.60257e-35 
5.11525e-21 -9.04256e-24 -2.8612e-23 -8.24585e-22 -5.60577e-23 -1.77375e-22 -5.11187e-21 -4.00243e-34 
4.99944e-21 -1.63065e-23 -3.93253e-23 -9.03365e-22 -9.0144e-23 -2.17394e-22 -4.9939e-21 3.32711e-35 
7.9553e-21 -5.61835e-23 -2.50833e-23 -1.47132e-21 -3.03515e-22 -1.35505e-22 -7.94835e-21 1.0286e-33 
6.55273e-21 -3.66324e-23 -6.1984e-23 -1.17847e-21 -2.03311e-22 -3.44012e-22 -6.54054e-21 -1.79161e-33 
7.86519e-21 -7.5171e-23 -5.74777e-23 -1.42933e-21 -4.1274e-22 -3.15591e-22 -7.84801e-21 4.80666e-34 
4.33802e-21 -6.75615e-24 -1.64324e-23 -1.41869e-21 -2.06571e-23 -5.02426e-23 -4.33768e-21 -2.99449e-34 
6.04711e-21 -1.75322e-23 -1.12753e-23 -9.96836e-22 -1.06333e-22 -6.83847e-23 -6.04579e-21 2.12377e-34 
7.04436e-21 -9.68306e-24 -3.34489e-23 -8.44054e-22 -8.07449e-23 -2.78922e-22 -7.03838e-21 -1.08587e-33 
4.4113e-21 -7.6543e-24 -1.24493e-23 -7.2041e-22 -4.686e-23 -7.62151e-23 -4.41039e-21 3.01465e-34 
5.81053e-21 -1.84295e-24 0 -1.08948e-22 -9.82767e-23 0 -5.8097e-21 7.5859e-34 
5.94697e-21 -1.92188e-23 3.11859e-23 -1.08807e-21 -1.04983e-22 1.70353e-22 -5.94361e-21 -1.00123e-33 
5.26594e-21 -1.92971e-23 0 -1.87599e-21 -5.41644e-23 0 -5.26566e-21 3.93151e-34 
6.03461e-21 -7.69175e-25 1.9365e-23 -1.45374e-21 -3.19265e-24 8.03793e-23 -6.03408e-21 9.87899e-34 
5.47794e-21 -7.76083e-24 4.06986e-23 -1.31579e-21 -3.22943e-23 1.69354e-22 -5.47523e-21 -4.34859e-34 
9.50852e-21 -9.09839e-23 7.83367e-23 -1.72071e-21 -5.0155e-22 4.31832e-22 -9.48546e-21 4.49401e-34 
6.69822e-21 -4.73669e-23 2.44751e-23 -1.23659e-21 -2.56334e-22 1.32451e-22 -6.69201e-21 -5.83304e-34 
8.02792e-21 -6.94634e-23 8.80007e-23 -1.43574e-21 -3.87224e-22 4.90561e-22 -8.00356e-21 1.20476e-33 
5.85142e-21 -2.92634e-23 3.68999e-23 -1.06728e-21 -1.60283e-22 2.0211e-22 -5.84574e-21 -2.57726e-34 
6.38297e-21 -1.24245e-23 3.5703e-23 -1.02894e-21 -7.70224e-23 2.21331e-22 -6.37867e-21 1.13966e-33 
5.15026e-21 -8.92147e-24 9.60309e-24 -8.48995e-22 -5.41139e-23 5.82484e-23 -5.14965e-21 -1.16155e-34 
6.46609e-21 -6.04414e-23 0 -2.30354e-21 -1.69602e-22 0 -6.46387e-21 1.7395e-33 
5.01897e-21 -1.70347e-24 0 -3.57601e-21 -2.39084e-24 0 -5.01897e-21 5.88223e-34 
5.05204e-21 -8.31973e-24 2.96754e-23 -1.22878e-21 -3.41951e-23 1.2197e-22 -5.05045e-21 5.39714e-34 
1.16289e-20 -1.38369e-22 0 -2.1259e-21 -7.55294e-22 0 -1.16043e-20 -1.01544e-33 
5.96896e-21 -8.0901e-24 4.25288e-21 0 -1.13545e-23 5.96895e-21 0 -4.25424e-34 
1.2609e-20 -1.54578e-22 2.32299e-21 -5.19396e-23 -8.36976e-22 1.25781e-20 -2.81232e-22 1.77752e-34 
6.80989e-21 -4.88099e-23 1.25948e-21 -2.14717e-23 -2.63675e-22 6.80379e-21 -1.15992e-22 -3.6355e-34 
1.46474e-20 -1.8038e-22 2.65067e-21 -1.20674e-22 -9.93441e-22 1.45985e-20 -6.64608e-22 -7.68408e-34 
4.57182e-21 -5.44102e-25 1.14296e-21 -1.63499e-27 -2.17641e-24 4.57182e-21 -6.53995e-27 6.41247e-34 
5.88178e-21 -8.33296e-24 1.41279e-21 -4.36989e-23 -3.4675e-23 5.87886e-21 -1.81839e-22 3.80217e-34 
4.36466e-21 -7.71568e-24 7.03589e-22 -2.44136e-23 -4.7832e-23 4.36177e-21 -1.51348e-22 -1.18716e-34 
6.57814e-21 -2.14557e-23 1.18863e-21 -5.17433e-23 -1.18609e-22 6.57085e-21 -2.86042e-22 -4.26474e-34 
7.12736e-21 -5.03363e-23 1.31819e-21 -2.24728e-23 -2.71927e-22 7.12114e-21 -1.21402e-22 6.70957e-34 
8.67207e-21 -4.84804e-23 1.55962e-21 -8.20313e-23 -2.69067e-22 8.65593e-21 -4.55275e-22 -1.95255e-33 
8.84698e-21 -8.45544e-23 1.60775e-21 -6.46524e-23 -4.64261e-22 8.82765e-21 -3.54986e-22 2.64366e-34 
4.3234e-21 -6.73337e-24 1.4139e-21 -1.6377e-23 -2.05875e-23 4.32306e-21 -5.00733e-23 1.55579e-34 
4.96667e-21 -1.43997e-23 8.1873e-22 -9.26076e-24 -8.73341e-23 4.96558e-21 -5.61663e-23 2.02422e-34 
6.10531e-21 -8.39226e-24 7.31537e-22 -2.89899e-23 -6.99811e-23 6.10012e-21 -2.4174e-22 -2.05311e-33 
4.37052e-21 -7.58354e-24 7.13751e-22 -1.23342e-23 -4.64268e-23 4.36962e-21 -7.55105e-23 9.24494e-34 
3.45187e-21 -1.09485e-24 6.47227e-23 0 -5.83834e-23 3.45138e-21 0 2.33412e-34 
5.40879e-21 -1.74796e-23 9.89605e-22 2.83636e-23 -9.54823e-23 5.40573e-21 1.54937e-22 -4.51302e-34 
5.20229e-21 -1.90638e-23 1.85332e-21 0 -5.35096e-23 5.20201e-21 0 1.68932e-34 
5.47103e-21 -6.97341e-25 1.31797e-21 1.75565e-23 -2.89448e-24 5.47054e-21 7.28725e-23 4.33767e-34 
5.94948e-21 -8.42888e-24 1.42905e-21 4.42019e-23 -3.50741e-23 5.94653e-21 1.83932e-22 -1.07007e-33 
9.66121e-21 -9.2445e-23 1.74835e-21 7.95947e-23 -5.09605e-22 9.63778e-21 4.38767e-22 7.75141e-34 
6.31031e-21 -4.46237e-23 1.16498e-21 2.30577e-23 -2.41489e-22 6.30445e-21 1.24781e-22 1.93053e-33 
9.45846e-21 -8.18414e-23 1.69158e-21 1.03682e-22 -4.56225e-22 9.42975e-21 5.77976e-22 6.64907e-34 
7.40971e-21 -3.70565e-23 1.3515e-21 4.67267e-23 -2.02967e-22 7.40251e-21 2.55933e-22 -5.66398e-34 
6.75953e-21 -1.31575e-23 1.08965e-21 3.78093e-23 -8.15662e-23 6.75497e-21 2.34389e-22 1.07521e-33 
5.98144e-21 -1.03613e-23 9.86009e-22 1.11529e-23 -6.2847e-23 5.98072e-21 6.76487e-23 -4.31434e-35 
6.82025e-21 -6.37519e-23 2.42971e-21 0 -1.78891e-22 6.8179e-21 0 1.49692e-33 
5.11916e-21 -1.73748e-24 3.6474e-21 0 -2.43856e-24 5.11916e-21 0 6.42744e-34 
5.38092e-21 -8.86133e-24 1.30878e-21 3.16072e-23 -3.64212e-23 5.37923e-21 1.2991e-22 -3.23829e-34 
1.27591e-20 -1.51818e-22 2.33253e-21 0 -8.28704e-22 1.27322e-20 0 -1.0005e-33 
5.07899e-21 -6.88387e-24 0 3.61878e-21 -9.66155e-24 0 5.07898e-21 -3.7551e-34 
1.15065e-20 -1.41062e-22 4.73983e-23 2.11988e-21 -7.63796e-22 2.56643e-22 1.14783e-20 -5.8362e-34 
7.48511e-21 -5.36495e-23 2.36007e-23 1.38436e-21 -2.89819e-22 1.27493e-22 7.47841e-21 -3.90151e-34 
1.40644e-20 -1.73201e-22 1.15871e-22 2.54518e-21 -9.53905e-22 6.38159e-22 1.40175e-20 -8.73875e-35 
4.93149e-21 -5.86906e-25 1.76361e-27 1.23287e-21 -2.34762e-24 7.05444e-27 4.93149e-21 5.93099e-34 
5.64804e-21 -8.00182e-24 4.19623e-23 1.35664e-21 -3.32971e-23 1.74613e-22 5.64524e-21 3.02808e-34 
4.42922e-21 -7.82982e-24 2.47747e-23 7.13996e-22 -4.85395e-23 1.53586e-22 4.42629e-21 -3.0527e-34 
5.47276e-21 -1.78503e-23 4.30484e-23 9.88891e-22 -9.86784e-23 2.37976e-22 5.46669e-21 -1.54257e-34 
8.02365e-21 -5.66663e-23 2.52988e-23 1.48396e-21 -3.06123e-22 1.36669e-22 8.01664e-21 9.63577e-34 
6.31881e-21 -3.53247e-23 5.97712e-23 1.1364e-21 -1.96053e-22 3.31731e-22 6.30705e-21 -1.18429e-33 
8.67448e-21 -8.29058e-23 6.33919e-23 1.57641e-21 -4.55209e-22 3.48064e-22 8.65553e-21 -1.98275e-34 
5.12244e-21 -7.97782e-24 1.94038e-23 1.67522e-21 -2.43924e-23 5.93276e-23 5.12203e-21 -1.20449e-34 
5.51323e-21 -1.59844e-23 1.02799e-23 9.08828e-22 -9.69449e-23 6.23473e-23 5.51203e-21 7.30046e-35 
7.73716e-21 -1.06354e-23 3.67385e-23 9.27065e-22 -8.86859e-23 3.06354e-22 7.73058e-21 -1.75199e-33 
5.70587e-21 -9.90059e-24 1.61027e-23 9.31828e-22 -6.0612e-23 9.85817e-23 5.7047e-21 1.64131e-33 
3.94835e-21 -1.25232e-24 0 7.40316e-23 -6.67805e-23 0 3.94778e-21 -6.41884e-34 
4.71609e-21 -1.5241e-23 -2.47311e-23 8.62866e-22 -8.32539e-23 -1.35094e-22 4.71342e-21 -5.70852e-34 
5.05909e-21 -1.8539e-23 0 1.8023e-21 -5.20367e-23 0 5.05882e-21 -2.76435e-35 
5.88513e-21 -7.50123e-25 -1.88854e-23 1.41773e-21 -3.11356e-24 -7.83882e-23 5.88461e-21 6.13179e-34 
4.91275e-21 -6.96011e-24 -3.64995e-23 1.18003e-21 -2.89623e-23 -1.51881e-22 4.91032e-21 -6.87578e-34 
9.85901e-21 -9.43377e-23 -8.12243e-23 1.78414e-21 -5.20038e-22 -4.4775e-22 9.8351e-21 4.22256e-35 
6.94264e-21 -4.90953e-23 -2.53682e-23 1.28171e-21 -2.65687e-22 -1.37284e-22 6.93619e-21 -1.00672e-33 
8.75371e-21 -7.57434e-23 -9.59566e-23 1.56554e-21 -4.22232e-22 -5.34911e-22 8.72714e-21 2.33937e-33 
6.3558e-21 -3.17858e-23 -4.00806e-23 1.15927e-21 -1.74098e-22 -2.19531e-22 6.34962e-21 -1.19873e-33 
6.39352e-21 -1.2445e-23 -3.5762e-23 1.03064e-21 -7.71496e-23 -2.21697e-22 6.38921e-21 1.02095e-33 
5.15745e-21 -8.93392e-24 -9.6165e-24 8.5018e-22 -5.41894e-23 -5.83297e-23 5.15684e-21 -3.58422e-34 
6.38201e-21 -5.96554e-23 0 2.27359e-21 -1.67396e-22 0 6.37981e-21 2.09876e-33 
5.39764e-21 -1.83199e-24 0 3.84582e-21 -2.57122e-24 0 5.39763e-21 3.54009e-34 
4.83598e-21 -7.96392e-24 -2.84063e-23 1.17623e-21 -3.27327e-23 -1.16753e-22 4.83446e-21 -3.82298e-35 
1.09494e-20 -1.30284e-22 0 2.00168e-21 -7.11161e-22 0 1.09263e-20 -6.83927e-34 
5.38025e-21 -7.29219e-24 -3.83343e-21 0 -1.02346e-23 -5.38024e-21 0 -1.61262e-34 
1.23797e-20 -1.51767e-22 -2.28074e-21 5.0995e-23 -8.21755e-22 -1.23493e-20 2.76117e-22 9.59862e-34 
6.3818e-21 -4.57416e-23 -1.1803e-21 2.0122e-23 -2.471e-22 -6.37609e-21 1.08701e-22 1.27095e-34 
1.54432e-20 -1.90181e-22 -2.79469e-21 1.2723e-22 -1.04742e-21 -1.53917e-20 7.0072e-22 -1.25959e-33 
4.24489e-21 -5.05193e-25 -1.06122e-21 1.51807e-27 -2.02077e-24 -4.24489e-21 6.07228e-27 6.41247e-34 
5.1019e-21 -7.22808e-24 -1.22546e-21 3.79048e-23 -3.00774e-23 -5.09938e-21 1.57729e-22 3.46066e-34 
5.25418e-21 -9.28816e-24 -8.46982e-22 2.93892e-23 -5.75803e-23 -5.25071e-21 1.82193e-22 -4.8504e-34 
5.72176e-21 -1.86625e-23 -1.03388e-21 4.5007e-23 -1.03168e-22 -5.71542e-21 2.48803e-22 -6.35175e-35 
7.43631e-21 -5.25182e-23 -1.37533e-21 2.34469e-23 -2.83714e-22 -7.42981e-21 1.26665e-22 8.54214e-34 
8.48288e-21 -4.74227e-23 -1.5256e-21 8.02417e-23 -2.63197e-22 -8.46709e-21 4.45343e-22 -2.37161e-33 
8.48981e-21 -8.11408e-23 -1.54285e-21 6.20424e-23 -4.45518e-22 -8.47127e-21 3.40654e-22 1.20167e-35 
4.73988e-21 -7.38201e-24 -1.55011e-21 1.79546e-23 -2.25707e-23 -4.73951e-21 5.48969e-23 -8.36448e-35 
5.00844e-21 -1.45208e-23 -8.25616e-22 9.33866e-24 -8.80687e-23 -5.00735e-21 5.66388e-23 5.11032e-34 
7.87651e-21 -1.08269e-23 -9.43762e-22 3.74001e-23 -9.02832e-23 -7.86981e-21 3.11871e-22 -2.14892e-33 
4.5923e-21 -7.96836e-24 -7.4997e-22 1.29601e-23 -4.87828e-23 -4.59135e-21 7.93422e-23 2.88067e-34 
4.0766e-22 -1.29299e-25 -7.64363e-24 0 -6.89497e-24 -4.07601e-22 0 2.33412e-34 
5.17058e-21 -1.67097e-23 -9.46022e-22 -2.71145e-23 -9.12772e-23 -5.16766e-21 -1.48113e-22 -8.81683e-34 
4.9236e-21 -1.80426e-23 -1.75403e-21 0 -5.06431e-23 -4.92334e-21 0 3.13293e-34 
6.10121e-21 -7.77664e-25 -1.46978e-21 -1.95788e-23 -3.22788e-24 -6.10067e-21 -8.12663e-23 6.06366e-34 
5.20808e-21 -7.3785e-24 -1.25096e-21 -3.86936e-23 -3.07033e-23 -5.2055e-21 -1.61011e-22 -6.21552e-34 
1.12215e-20 -1.07375e-22 -2.03071e-21 -9.24494e-23 -5.91906e-22 -1.11943e-20 -5.09628e-22 6.48464e-34 
6.44552e-21 -4.55799e-23 -1.18994e-21 -2.35517e-23 -2.46663e-22 -6.43953e-21 -1.27454e-22 1.27616e-33 
8.59938e-21 -7.4408e-23 -1.53794e-21 -9.42649e-23 -4.14788e-22 -8.57328e-21 -5.25481e-22 7.71658e-34 
7.58983e-21 -3.79572e-23 -1.38436e-21 -4.78625e-23 -2.07901e-22 -7.58245e-21 -2.62155e-22 -8.81063e-34 
5.90926e-21 -1.15024e-23 -9.52581e-22 -3.30533e-23 -7.13062e-23 -5.90528e-21 -2.04905e-22 1.333e-33 
4.75161e-21 -8.2309e-24 -7.83279e-22 -8.85977e-24 -4.99252e-23 -4.75104e-21 -5.37397e-23 -6.63744e-34 
6.42296e-21 -6.00383e-23 -2.28818e-21 0 -1.68471e-22 -6.42075e-21 0 1.65045e-33 
5.46631e-21 -1.8553e-24 -3.89474e-21 0 -2.60393e-24 -5.46631e-21 0 3.91636e-34 
4.77928e-21 -7.87056e-24 -1.16244e-21 -2.80733e-23 -3.23489e-23 -4.77778e-21 -1.15385e-22 3.37321e-35 
1.17201e-20 -1.39455e-22 -2.14259e-21 0 -7.61221e-22 -1.16954e-20 0 -7.64564e-34 
4.27967e-20 0 -3.57494e-20 -3.57494e-20 0 -3.02618e-20 -3.02618e-20 2.13175e-32 
0 0 0 0 0 0 0 0 
0 0 0 0 0 0 0 0 
0 0 0 0 0 0 0 0 
0 0 0 0 0 0 0 0 
0 0 0 0 0 0 0 0 
0 0 0 0 0 0 0 0 
0 0 0 0 0 0 0 0 
0 0 0 0 0 0 0 0 
0 0 0 0 0 0 0 0 
0 0 0 0 0 0 0 0 
0 0 0 0 0 0 0 0 
0 0 0 0 0 0 0 0 
0 0 0 0 0 0 0 0 
0 0 0 0 0 0 0 0 
0 0 0 0 0 0 0 0 
0 0 0 0 0 0 0 0 
0 0 0 0 0 0 0 0 
0 0 0 0 0 0 0 0 
0 0 0 0 0 0 0 0 
0 0 0 0 0 0 0 0 
0 0 0 0 0 0 0 0 
0 0 0 0 0 0 0 0 
0 0 0 0 0 0 0 0 
0 0 0 0 0 0 0 0 
0 0 0 0 0 0 0 0 
0 0 0 0 0 0 0 0 
0 0 0 0 0 0 0 0 
0 0 0 0 0 0 0 0 
0 0 0 0 0 0 0 0 
0 0 0 0 0 0 0 0 
0 0 0 0 0 0 0 0 
0 0 0 0 0 0 0 0 
0 0 0 0 0 0 0 0 
0 0 0 0 0 0 0 0 
0 0 0 0 0 0 0 0 
0 0 0 0 0 0 0 0 
0 0 0 0 0 0 0 0 
0 0 0 0 0 0 0 0 
0 0 0 0 0 0 0 0 
0 0 0 0 0 0 0 0 
0 0 0 0 0 0 0 0 
0 0 0 0 0 0 0 0 
0 0 0 0 0 0 0 0 
0 0 0 0 0 0 0 0 
0 0 0 0 0 0 0 0 
0 0 0 0 0 0 0 0 
4.30298e-20 0 3.59442e-20 3.59442e-20 0 3.04266e-20 3.04266e-20 2.18358e-32 
4.86644e-20 -1.99138e-21 -3.01784e-22 -1.12381e-20 -8.488e-21 -1.28631e-21 -4.79011e-20 -2.36523e-32 
5.47408e-20 -3.32481e-21 -1.21409e-21 -1.84373e-20 -9.69444e-21 -3.54002e-21 -5.37592e-20 -1.63124e-32 
4.11582e-20 -1.50616e-21 -2.64875e-22 -8.4236e-21 -7.24085e-21 -1.27338e-21 -4.04963e-20 -2.06483e-33 
8.7653e-20 -2.63282e-21 -2.1008e-21 -1.04086e-20 -2.10945e-20 -1.68319e-20 -8.33952e-20 -6.66331e-33 
1.01292e-19 -1.67918e-21 -9.9291e-22 -6.75248e-21 -2.41993e-20 -1.43092e-20 -9.73128e-20 -4.92027e-33 
9.88833e-20 -1.73878e-21 -6.88444e-22 -7.14723e-21 -2.32729e-20 -9.21454e-21 -9.56628e-20 8.97829e-33 
5.90525e-20 -9.67088e-22 -3.53818e-22 -4.3613e-21 -1.2744e-20 -4.66253e-21 -5.74721e-20 6.19344e-33 
4.12262e-20 -1.29466e-21 -3.62397e-22 -7.1116e-21 -7.37457e-21 -2.06427e-21 -4.05087e-20 -3.45941e-34 
4.49347e-20 -1.56519e-21 -4.19012e-22 -8.43026e-21 -8.19278e-21 -2.19326e-21 -4.4127e-20 -5.01187e-33 
4.73553e-20 -1.5221e-21 -6.7137e-22 -8.09144e-21 -8.7256e-21 -3.8487e-21 -4.63851e-20 1.79096e-33 
5.10117e-20 -1.70085e-21 -8.58846e-22 -8.68325e-21 -9.75982e-21 -4.92823e-21 -4.98262e-20 -2.91982e-34 
1.3805e-19 -3.19681e-21 -2.8181e-21 -1.58857e-20 -2.68321e-20 -2.36534e-20 -1.33335e-19 4.27503e-32 
4.89805e-20 -1.83833e-21 -1.06257e-21 -9.18765e-21 -9.54868e-21 -5.51922e-21 -4.77226e-20 -3.32225e-33 
5.21768e-20 -1.13645e-21 -3.96703e-22 -5.59589e-21 -1.03595e-20 -3.61619e-21 -5.101e-20 1.16558e-32 
5.23149e-20 -1.44749e-21 -7.80907e-22 -6.82055e-21 -1.07931e-20 -5.82281e-21 -5.08572e-20 -4.16132e-34 
7.66176e-20 -1.28766e-21 -6.10505e-22 -5.25802e-21 -1.81099e-20 -8.58625e-21 -7.39498e-20 -1.82758e-32 
5.99849e-20 -9.33617e-22 -4.1051e-22 -4.18932e-21 -1.29887e-20 -5.7111e-21 -5.82827e-20 -1.61144e-32 