ITEM: TIMESTEP
70
ITEM: NUMBER OF SURFS
6916
ITEM: BOX BOUNDS oo rr rr
-0.35 0.35
-0.25 0.25
-0.25 0.25
ITEM: SURFS f_save[1] f_save[2] f_save[3] f_save[4] f_save[5] f_save[6] f_save[7] f_save[8] 
10.5283 -7.89955e-05 0 0 -10.5283 0 0 0 
0 0 0 0 0 0 0 0 
0 0 0 0 0 0 0 0 
0.714405 -1.53807e-05 0.000214411 -1.58022e-06 0 0.714405 0 101.4 
0.425657 -5.40896e-05 0.000127741 -1.15942e-05 0 0.425657 0 408.232 
0.663807 -3.65432e-05 -0.000199225 3.0497e-06 0 -0.663807 0 241.245 
0.409479 -1.95173e-05 -0.000122886 -1.27559e-05 0 -0.409479 0 158.337 
0 0 0 0 0 0 0 0 
0 0 0 0 0 0 0 0 
0 0 0 0 0 0 0 0 
0.126216 -1.52261e-05 -1.13171e-06 7.38364e-05 0 0 0.126216 47.9333 
0.143822 3.11411e-06 1.95465e-06 8.41361e-05 0 0 0.143822 -0.707289 
0 0 0 0 0 0 0 0 
20.0381 -4.8843e-05 0 0 -20.0381 0 0 0 
0 0 0 0 0 0 0 0 
0 0 0 0 0 0 0 0 
0 0 0 0 0 0 0 0 
0 0 0 0 0 0 0 0 
21.3518 -5.20449e-05 0 0 -21.3518 0 0 0 
13.7402 -3.34917e-05 0 0 -13.7402 0 0 0 
0 0 0 0 0 0 0 0 
0 0 0 0 0 0 0 0 
18.7439 -4.45167e-05 0 0 -18.7439 0 0 0 
0 0 0 0 0 0 0 0 
0 0 0 0 0 0 0 0 
0 0 0 0 0 0 0 0 
0 0 0 0 0 0 0 0 
0 0 0 0 0 0 0 0 
0 0 0 0 0 0 0 0 
33.0188 -8.04834e-05 0 0 -33.0188 0 0 0 
0 0 0 0 0 0 0 0 
0 0 0 0 0 0 0 0 
23.8798 -5.67147e-05 3.14478e-06 -1.03015e-06 -23.8798 0 0 18997.6 
0 0 0 0 0 0 0 0 
0 0 0 0 0 0 0 0 
0 0 0 0 0 0 0 0 
0 0 0 0 0 0 0 0 
0 0 0 0 0 0 0 0 
18.3597 -4.36041e-05 0 0 -18.3597 0 0 0 
58.9728 -0.00014006 0 0 -58.9728 0 0 0 
0 0 0 0 0 0 0 0 
20.3031 -4.82199e-05 0 0 -20.3031 0 0 0 
20.175 -4.79157e-05 0 0 -20.175 0 0 0 
17.911 -4.25387e-05 0 0 -17.911 0 0 0 
0 0 0 0 0 0 0 0 
0 0 0 0 0 0 0 0 
41.6401 -0.000101498 -1.52167e-06 3.37125e-07 -41.6401 0 0 15589.5 
6.40285 -1.56069e-05 -2.00346e-06 -9.25495e-07 -6.40285 0 0 11476.2 
0 0 0 0 0 0 0 0 
19.0534 -4.64427e-05 0 0 -19.0534 0 0 0 
19.3397 -4.71405e-05 0 0 -19.3397 0 0 0 
11.9259 -2.90693e-05 0 0 -11.9259 0 0 0 
0 0 0 0 0 0 0 0 
0 0 0 0 0 0 0 0 
0 0 0 0 0 0 0 0 
0 0 0 0 0 0 0 0 
20.5591 -4.88279e-05 0 0 -20.5591 0 0 0 
0 0 0 0 0 0 0 0 
0 0 0 0 0 0 0 0 
41.1402 -9.77077e-05 0 0 -41.1402 0 0 0 
17.8862 -4.35976e-05 0 0 -17.8862 0 0 0 
17.1843 -4.18867e-05 0 0 -17.1843 0 0 0 
18.076 -4.40604e-05 0 0 -18.076 0 0 0 
20.4624 -4.98771e-05 0 0 -20.4624 0 0 0 
0 0 0 0 0 0 0 0 
0 0 0 0 0 0 0 0 
0 0 0 0 0 0 0 0 
0 0 0 0 0 0 0 0 
21.0128 -4.99055e-05 0 0 -21.0128 0 0 0 
0 0 0 0 0 0 0 0 
26.1994 -6.38615e-05 0 0 -26.1994 0 0 0 
0 0 0 0 0 0 0 0 
0 0 0 0 0 0 0 0 
0 0 0 0 0 0 0 0 
19.8974 -4.84997e-05 0 0 -19.8974 0 0 0 
0 0 0 0 0 0 0 0 
23.9495 -5.83771e-05 -2.60046e-07 1.41375e-06 -23.9495 0 0 7793.96 
17.7961 -4.33781e-05 0 0 -17.7961 0 0 0 
7.86749 -1.86853e-05 0 0 -7.86749 0 0 0 
39.0607 -9.27692e-05 0 0 -39.0607 0 0 0 
0 0 0 0 0 0 0 0 
0 0 0 0 0 0 0 0 
19.2746 -4.57773e-05 0 0 -19.2746 0 0 0 
13.9987 -3.32471e-05 0 0 -13.9987 0 0 0 
0 0 0 0 0 0 0 0 
0 0 0 0 0 0 0 0 
0 0 0 0 0 0 0 0 
0 0 0 0 0 0 0 0 
0 0 0 0 0 0 0 0 
17.6892 -4.31175e-05 0 0 -17.6892 0 0 0 
0 0 0 0 0 0 0 0 
0 0 0 0 0 0 0 0 
0 0 0 0 0 0 0 0 
0 0 0 0 0 0 0 0 
19.148 -4.66734e-05 0 0 -19.148 0 0 0 
36.6069 -8.92296e-05 4.1482e-06 2.44001e-06 -36.6069 0 0 30597.3 
32.2437 -7.6579e-05 0 0 -32.2437 0 0 0 
6.78464 -1.61135e-05 2.34546e-06 -1.07162e-06 -6.78464 0 0 8511.87 
0 0 0 0 0 0 0 0 
0 0 0 0 0 0 0 0 
0 0 0 0 0 0 0 0 
31.6121 -7.5079e-05 -7.17314e-07 7.74312e-07 -31.6121 0 0 21290.1 
0 0 0 0 0 0 0 0 
0 0 0 0 0 0 0 0 
0 0 0 0 0 0 0 0 
0 0 0 0 0 0 0 0 
10.506 -2.49518e-05 1.03687e-06 -7.41789e-07 -10.506 0 0 18405.3 
0 0 0 0 0 0 0 0 
0 0 0 0 0 0 0 0 
0 0 0 0 0 0 0 0 
0 0 0 0 0 0 0 0 
0 0 0 0 0 0 0 0 
0 0 0 0 0 0 0 0 
20.496 -4.86782e-05 0 0 -20.496 0 0 0 
0 0 0 0 0 0 0 0 
0 0 0 0 0 0 0 0 
0 0 0 0 0 0 0 0 
0 0 0 0 0 0 0 0 
16.7926 -3.98825e-05 0 0 -16.7926 0 0 0 
0 0 0 0 0 0 0 0 
0 0 0 0 0 0 0 0 
0 0 0 0 0 0 0 0 
0 0 0 0 0 0 0 0 
0 0 0 0 0 0 0 0 
10.1568 -2.41225e-05 -1.12076e-06 -3.34893e-06 -10.1568 0 0 16264.5 
13.9635 -3.31634e-05 0 0 -13.9635 0 0 0 
0 0 0 0 0 0 0 0 
0 0 0 0 0 0 0 0 
0 0 0 0 0 0 0 0 
0 0 0 0 0 0 0 0 
0 0 0 0 0 0 0 0 
0 0 0 0 0 0 0 0 
20.2241 -4.92963e-05 0 0 -20.2241 0 0 0 
17.387 -4.2381e-05 0 0 -17.387 0 0 0 
0 0 0 0 0 0 0 0 
0 0 0 0 0 0 0 0 
0 0 0 0 0 0 0 0 
20.5442 -4.87927e-05 0 0 -20.5442 0 0 0 
0 0 0 0 0 0 0 0 
18.9333 -4.61498e-05 0 0 -18.9333 0 0 0 
0 0 0 0 0 0 0 0 
0 0 0 0 0 0 0 0 
30.8207 -7.31994e-05 1.0373e-07 5.1368e-07 -30.8207 0 0 16532.6 
0 0 0 0 0 0 0 0 
0 0 0 0 0 0 0 0 
10.3613 -2.52556e-05 -2.95705e-07 -4.7105e-06 -10.3613 0 0 17165.1 
0 0 0 0 0 0 0 0 
0 0 0 0 0 0 0 0 
15.8847 -3.77263e-05 0 0 -15.8847 0 0 0 
19.2947 -4.58249e-05 0 0 -19.2947 0 0 0 
53.8213 -0.000131189 0 0 -53.8213 0 0 0 
22.946 -5.59308e-05 7.27144e-07 -1.51784e-06 -22.946 0 0 16665.1 
0 0 0 0 0 0 0 0 
0 0 0 0 0 0 0 0 
0 0 0 0 0 0 0 0 
0 0 0 0 0 0 0 0 
18.4478 -4.38136e-05 0 0 -18.4478 0 0 0 
5.72847 -1.36052e-05 0 0 -5.72847 0 0 0 
0 0 0 0 0 0 0 0 
0 0 0 0 0 0 0 0 
19.347 -4.71581e-05 0 0 -19.347 0 0 0 
17.8214 -4.34396e-05 0 0 -17.8214 0 0 0 
0 0 0 0 0 0 0 0 
0 0 0 0 0 0 0 0 
0 0 0 0 0 0 0 0 
0 0 0 0 0 0 0 0 
0 0 0 0 0 0 0 0 
0 0 0 0 0 0 0 0 
4.91928 -1.16834e-05 2.64411e-06 -5.27334e-07 -4.91928 0 0 9194.41 
0 0 0 0 0 0 0 0 
0 0 0 0 0 0 0 0 
0 0 0 0 0 0 0 0 
0 0 0 0 0 0 0 0 
0 0 0 0 0 0 0 0 
11.8934 -2.82468e-05 0 0 -11.8934 0 0 0 
12.2379 -2.9065e-05 0 0 -12.2379 0 0 0 
0 0 0 0 0 0 0 0 
0 0 0 0 0 0 0 0 
10.013 -2.37809e-05 -1.54716e-06 2.67204e-07 -10.013 0 0 16156 
0 0 0 0 0 0 0 0 
21.2178 -5.03926e-05 0 0 -21.2178 0 0 0 
0 0 0 0 0 0 0 0 
0 0 0 0 0 0 0 0 
0 0 0 0 0 0 0 0 
0 0 0 0 0 0 0 0 
0 0 0 0 0 0 0 0 
20.1318 -4.78129e-05 0 0 -20.1318 0 0 0 
20.3117 -4.82402e-05 0 0 -20.3117 0 0 0 
0 0 0 0 0 0 0 0 
0 0 0 0 0 0 0 0 
0 0 0 0 0 0 0 0 
11.2654 -2.67554e-05 1.36798e-06 8.51322e-07 -11.2654 0 0 18905.6 
0 0 0 0 0 0 0 0 
0 0 0 0 0 0 0 0 
56.1993 -0.000133474 0 0 -56.1993 0 0 0 
0 0 0 0 0 0 0 0 
0 0 0 0 0 0 0 0 
0 0 0 0 0 0 0 0 
0 0 0 0 0 0 0 0 
0 0 0 0 0 0 0 0 
18.035 -4.28331e-05 0 0 -18.035 0 0 0 
0 0 0 0 0 0 0 0 
0 0 0 0 0 0 0 0 
0 0 0 0 0 0 0 0 
0 0 0 0 0 0 0 0 
0 0 0 0 0 0 0 0 
0 0 0 0 0 0 0 0 
0 0 0 0 0 0 0 0 
0 0 0 0 0 0 0 0 
0 0 0 0 0 0 0 0 
0 0 0 0 0 0 0 0 
19.314 -4.58706e-05 0 0 -19.314 0 0 0 
0 0 0 0 0 0 0 0 
0 0 0 0 0 0 0 0 
20.6205 -4.89736e-05 0 0 -20.6205 0 0 0 
18.7642 -4.4565e-05 0 0 -18.7642 0 0 0 
0 0 0 0 0 0 0 0 
0 0 0 0 0 0 0 0 
0 0 0 0 0 0 0 0 
0 0 0 0 0 0 0 0 
0 0 0 0 0 0 0 0 
0 0 0 0 0 0 0 0 
0 0 0 0 0 0 0 0 
0 0 0 0 0 0 0 0 
0 0 0 0 0 0 0 0 
48.2724 -0.000114647 3.86009e-07 -6.06641e-07 -48.2724 0 0 15048.1 
21.5904 -5.12773e-05 0 0 -21.5904 0 0 0 
0 0 0 0 0 0 0 0 
0 0 0 0 0 0 0 0 
0 0 0 0 0 0 0 0 
41.0573 -9.75114e-05 0 0 -41.0573 0 0 0 
0 0 0 0 0 0 0 0 
18.7111 -4.44391e-05 0 0 -18.7111 0 0 0 
0 0 0 0 0 0 0 0 
0 0 0 0 0 0 0 0 
0 0 0 0 0 0 0 0 
0 0 0 0 0 0 0 0 
0 0 0 0 0 0 0 0 
0 0 0 0 0 0 0 0 
0 0 0 0 0 0 0 0 
20.8414 -4.94983e-05 0 0 -20.8414 0 0 0 
0 0 0 0 0 0 0 0 
0 0 0 0 0 0 0 0 
7.92989 -1.93291e-05 -4.61752e-06 4.76321e-06 -7.92989 0 0 13237.4 
0 0 0 0 0 0 0 0 
0 0 0 0 0 0 0 0 
16.9332 -4.02167e-05 0 0 -16.9332 0 0 0 
0 0 0 0 0 0 0 0 
0 0 0 0 0 0 0 0 
19.9056 -4.72759e-05 0 0 -19.9056 0 0 0 
0 0 0 0 0 0 0 0 
0 0 0 0 0 0 0 0 
0 0 0 0 0 0 0 0 
17.5404 -4.27548e-05 0 0 -17.5404 0 0 0 
13.342 -3.16875e-05 0 0 -13.342 0 0 0 
0 0 0 0 0 0 0 0 
0 0 0 0 0 0 0 0 
0 0 0 0 0 0 0 0 
0 0 0 0 0 0 0 0 
0 0 0 0 0 0 0 0 
18.3394 -4.3556e-05 0 0 -18.3394 0 0 0 
0 0 0 0 0 0 0 0 
0 0 0 0 0 0 0 0 
0 0 0 0 0 0 0 0 
0 0 0 0 0 0 0 0 
28.4603 -6.75933e-05 -1.61027e-06 2.64829e-06 -28.4603 0 0 17627.2 
0 0 0 0 0 0 0 0 
0 0 0 0 0 0 0 0 
0 0 0 0 0 0 0 0 
0 0 0 0 0 0 0 0 
16.6937 -3.96476e-05 0 0 -16.6937 0 0 0 
20.0404 -4.75961e-05 0 0 -20.0404 0 0 0 
0 0 0 0 0 0 0 0 
0 0 0 0 0 0 0 0 
0 0 0 0 0 0 0 0 
0 0 0 0 0 0 0 0 
0 0 0 0 0 0 0 0 
0 0 0 0 0 0 0 0 
0 0 0 0 0 0 0 0 
40.3975 -9.59443e-05 0 0 -40.3975 0 0 0 
0 0 0 0 0 0 0 0 
0 0 0 0 0 0 0 0 
0 0 0 0 0 0 0 0 
0 0 0 0 0 0 0 0 
18.7099 -4.4436e-05 0 0 -18.7099 0 0 0 
10.5965 -2.51667e-05 7.04129e-07 1.44344e-06 -10.5965 0 0 17422.4 
0 0 0 0 0 0 0 0 
0 0 0 0 0 0 0 0 
12.9162 -3.0676e-05 0 0 -12.9162 0 0 0 
57.7527 -0.000137163 0 0 -57.7527 0 0 0 
0 0 0 0 0 0 0 0 
0 0 0 0 0 0 0 0 
0 0 0 0 0 0 0 0 
0 0 0 0 0 0 0 0 
0 0 0 0 0 0 0 0 
0 0 0 0 0 0 0 0 
0 0 0 0 0 0 0 0 
0 0 0 0 0 0 0 0 
0 0 0 0 0 0 0 0 
18.941 -4.4985e-05 0 0 -18.941 0 0 0 
0 0 0 0 0 0 0 0 
0 0 0 0 0 0 0 0 
224.902 -2.81128e-05 -1.09126e-06 -1.93265e-06 -224.902 0 0 366789 
0 0 0 0 0 0 0 0 
11.1173 -2.64036e-05 -9.44354e-07 1.59935e-06 -11.1173 0 0 17029 
0 0 0 0 0 0 0 0 
0 0 0 0 0 0 0 0 
18.6621 -4.43226e-05 0 0 -18.6621 0 0 0 
0 0 0 0 0 0 0 0 
0 0 0 0 0 0 0 0 
13.4988 -3.20596e-05 0 0 -13.4988 0 0 0 
13.3112 -3.1614e-05 0 0 -13.3112 0 0 0 
0 0 0 0 0 0 0 0 
0 0 0 0 0 0 0 0 
0 0 0 0 0 0 0 0 
0 0 0 0 0 0 0 0 
18.0042 -4.276e-05 0 0 -18.0042 0 0 0 
0 0 0 0 0 0 0 0 
0 0 0 0 0 0 0 0 
0 0 0 0 0 0 0 0 
0 0 0 0 0 0 0 0 
51.1976 -0.000121595 1.41316e-06 -2.39278e-06 -51.1976 0 0 17651 
0 0 0 0 0 0 0 0 
0 0 0 0 0 0 0 0 
20.291 -4.81911e-05 0 0 -20.291 0 0 0 
18.4867 -4.3906e-05 0 0 -18.4867 0 0 0 
0 0 0 0 0 0 0 0 
0 0 0 0 0 0 0 0 
0 0 0 0 0 0 0 0 
0 0 0 0 0 0 0 0 
0 0 0 0 0 0 0 0 
0 0 0 0 0 0 0 0 
19.7132 -4.80511e-05 0 0 -19.7132 0 0 0 
0 0 0 0 0 0 0 0 
7.97594 -0.00393157 5.98934e-06 -1.29634e-05 -7.97594 0 0 1460.36 
7.47367 -0.000364341 0 0 -7.47367 0 0 0 
0 0 0 0 0 0 0 0 
8.71177 -0.000413809 3.02044e-07 4.23978e-06 -8.71177 0 0 861.271 
0 0 0 0 0 0 0 0 
6.84343 -0.000325063 5.39116e-06 -5.48601e-06 -6.84343 0 0 1492.59 
0 0 0 0 0 0 0 0 
9.89416 -0.000469973 2.72381e-06 2.20239e-06 -9.89416 0 0 1703.55 
37.9969 -9.49922e-05 0 0 -37.9969 0 0 0 
7.13808 -0.000339059 0 0 -7.13808 0 0 0 
1.43396 -3.58491e-06 0 0 -1.43396 0 0 0 
10.3486 -0.000491559 7.5011e-06 2.96439e-06 -10.3486 0 0 2655.11 
0 0 0 0 0 0 0 0 
8.1271 -0.000386037 1.68399e-06 1.19588e-06 -8.1271 0 0 758.643 
35.9946 -8.99871e-05 0 0 -35.9946 0 0 3.27764e-11 
8.12078 -0.000395888 2.04828e-06 6.24132e-07 -8.12078 0 0 2307.87 
8.34401 -0.003641 2.4597e-07 -1.11993e-05 -8.34401 0 0 1197.31 
6.54241 -0.000456077 -3.35747e-06 4.36477e-06 -6.54241 0 0 450.048 
11.1425 -0.000958253 -6.43849e-06 -1.2672e-06 -11.1425 0 0 2240.06 
10.5119 -0.000904023 -6.13764e-06 -4.91725e-06 -10.5119 0 0 1234.05 
9.53542 -0.000464852 -6.15112e-06 1.15506e-06 -9.53542 0 0 2251.31 
0 0 0 0 0 0 0 0 
7.05273 -0.000335005 0 0 -7.05273 0 0 0 
0 0 0 0 0 0 0 0 
4.23556 -0.000201189 7.79395e-07 2.87187e-07 -4.23556 0 0 1114.48 
0 0 0 0 0 0 0 0 
10.0425 -0.000477018 7.61612e-07 -4.00697e-06 -10.0425 0 0 1954.19 
17.8149 -4.45372e-05 0 0 -17.8149 0 0 0 
7.40626 -0.000351797 1.38367e-06 2.99709e-06 -7.40626 0 0 857.15 
0 0 0 0 0 0 0 0 
14.1151 -0.000670467 1.22941e-06 -6.66019e-06 -14.1151 0 0 1620.15 
0 0 0 0 0 0 0 0 
5.47269 -0.000259953 -1.16515e-06 2.72752e-06 -5.47269 0 0 1112.55 
0 0 0 0 0 0 0 0 
3.17175 -0.000154623 -3.71445e-08 3.50577e-06 -3.17175 0 0 826.629 
12.3487 -0.000602 1.81064e-05 -6.03995e-06 -12.3487 0 0 1427.62 
10.0976 -0.00497739 2.28809e-06 -8.99722e-06 -10.0976 0 0 1973.91 
7.53661 -0.000648147 -3.33692e-08 -3.35044e-06 -7.53661 0 0 1473.77 
6.27585 -0.000539724 9.51182e-07 -1.27896e-06 -6.27585 0 0 451.22 
6.69337 -8.79653e-05 1.14656e-06 -7.5892e-07 -6.69337 0 0 6021.31 
7.1374 -0.000347948 3.26739e-06 -8.90745e-07 -7.1374 0 0 2524.97 
0 0 0 0 0 0 0 0 
6.87653 -0.000326635 -6.55947e-06 -2.62381e-06 -6.87653 0 0 4152.9 
10.0332 -2.5083e-05 -1.99092e-06 2.90778e-07 -10.0332 0 0 15789.4 
6.70207 -0.000318349 -9.12884e-07 3.62979e-06 -6.70207 0 0 5204.17 
0 0 0 0 0 0 0 0 
5.56292 -0.000264239 1.01203e-06 -1.01165e-06 -5.56292 0 0 342.902 
0 0 0 0 0 0 0 0 
12.4132 -0.000589628 -2.73759e-06 -1.466e-06 -12.4132 0 0 759.315 
17.1881 -4.29703e-05 0 0 -17.1881 0 0 1.38006e-11 
14.3809 -0.000683094 -9.21334e-06 -3.21754e-06 -14.3809 0 0 4197.58 
0 0 0 0 0 0 0 0 
9.80329 -0.000465656 -8.54978e-07 -7.3128e-07 -9.80329 0 0 1718.81 
0 0 0 0 0 0 0 0 
3.47367 -0.000169341 -7.91782e-06 5.75551e-06 -3.47367 0 0 838.131 
8.47069 -0.00417545 9.81268e-06 7.44059e-06 -8.47069 0 0 1111.88 
0 0 0 0 0 0 0 0 
9.69368 -0.00046045 1.1628e-06 -2.44062e-06 -9.69368 0 0 885.971 
17.8576 -4.4644e-05 0 0 -17.8576 0 0 0 
10.9818 -0.000521636 -8.01043e-06 2.35082e-06 -10.9818 0 0 660.796 
16.826 -4.2065e-05 0 0 -16.826 0 0 1.38006e-11 
7.27158 -0.0003454 5.78916e-06 -3.86227e-07 -7.27158 0 0 2642.24 
0 0 0 0 0 0 0 0 
11.3064 -0.000537056 0 0 -11.3064 0 0 0 
36.3198 -9.07996e-05 0 0 -36.3198 0 0 0 
6.32076 -0.000300236 -9.7662e-07 -1.99191e-06 -6.32076 0 0 1086.55 
10.1382 -2.53455e-05 -2.7741e-06 -1.42675e-06 -10.1382 0 0 18493.7 
4.67521 -0.000222072 2.83517e-06 2.16001e-06 -4.67521 0 0 1539.34 
14.4823 -3.62059e-05 0 0 -14.4823 0 0 1.20755e-11 
7.76246 -0.00037842 2.85284e-06 -1.33247e-06 -7.76246 0 0 839.311 
0.0317661 -2.43346e-05 1.85832e-05 1.58728e-06 0 0.0317661 0 67.128 
0.0639094 0 1.86935e-05 0 0 0.0639094 0 0 
0 0 0 0 0 0 0 0 
0 0 0 0 0 0 0 0 
0 0 0 0 0 0 0 0 
0 0 0 0 0 0 0 0 
0 0 0 0 0 0 0 0 
0 0 0 0 0 0 0 0 
0 0 0 0 0 0 0 0 
0 0 0 0 0 0 0 0 
0 0 0 0 0 0 0 0 
0 0 0 0 0 0 0 0 
0 0 0 0 0 0 0 0 
0 0 0 0 0 0 0 0 
0 0 0 0 0 0 0 0 
0 0 0 0 0 0 0 0 
0 0 0 0 0 0 0 0 
0 0 0 0 0 0 0 0 
0 0 0 0 0 0 0 0 
0 0 0 0 0 0 0 0 
0 0 0 0 0 0 0 0 
0 0 0 0 0 0 0 0 
0 0 0 0 0 0 0 0 
0 0 0 0 0 0 0 0 
0 0 0 0 0 0 0 0 
0 0 0 0 0 0 0 0 
0 0 0 0 0 0 0 0 
0 0 0 0 0 0 0 0 
9.97595 2.36929e-05 -7.45008e-07 -1.69153e-06 9.97595 0 0 14280.9 
0 0 0 0 0 0 0 0 
0 0 0 0 0 0 0 0 
0 0 0 0 0 0 0 0 
0 0 0 0 0 0 0 0 
0 0 0 0 0 0 0 0 
0 0 0 0 0 0 0 0 
0 0 0 0 0 0 0 0 
0 0 0 0 0 0 0 0 
0 0 0 0 0 0 0 0 
0 0 0 0 0 0 0 0 
0 0 0 0 0 0 0 0 
0 0 0 0 0 0 0 0 
0 0 0 0 0 0 0 0 
0 0 0 0 0 0 0 0 
0 0 0 0 0 0 0 0 
0 0 0 0 0 0 0 0 
0 0 0 0 0 0 0 0 
0 0 0 0 0 0 0 0 
0 0 0 0 0 0 0 0 
0 0 0 0 0 0 0 0 
0 0 0 0 0 0 0 0 
0 0 0 0 0 0 0 0 
0 0 0 0 0 0 0 0 
0 0 0 0 0 0 0 0 
0 0 0 0 0 0 0 0 
0 0 0 0 0 0 0 0 
0 0 0 0 0 0 0 0 
0 0 0 0 0 0 0 0 
0 0 0 0 0 0 0 0 
0 0 0 0 0 0 0 0 
0 0 0 0 0 0 0 0 
0 0 0 0 0 0 0 0 
0 0 0 0 0 0 0 0 
0 0 0 0 0 0 0 0 
0 0 0 0 0 0 0 0 
0 0 0 0 0 0 0 0 
0 0 0 0 0 0 0 0 
0 0 0 0 0 0 0 0 
0 0 0 0 0 0 0 0 
0 0 0 0 0 0 0 0 
0 0 0 0 0 0 0 0 
0 0 0 0 0 0 0 0 
0 0 0 0 0 0 0 0 
0 0 0 0 0 0 0 0 
0 0 0 0 0 0 0 0 
0 0 0 0 0 0 0 0 
0 0 0 0 0 0 0 0 
0 0 0 0 0 0 0 0 
0 0 0 0 0 0 0 0 
0 0 0 0 0 0 0 0 
0 0 0 0 0 0 0 0 
0 0 0 0 0 0 0 0 
0 0 0 0 0 0 0 0 
0 0 0 0 0 0 0 0 
0 0 0 0 0 0 0 0 
0 0 0 0 0 0 0 0 
0 0 0 0 0 0 0 0 
0 0 0 0 0 0 0 0 
0 0 0 0 0 0 0 0 
0 0 0 0 0 0 0 0 
0 0 0 0 0 0 0 0 
0 0 0 0 0 0 0 0 
0 0 0 0 0 0 0 0 
0 0 0 0 0 0 0 0 
0 0 0 0 0 0 0 0 
0 0 0 0 0 0 0 0 
0 0 0 0 0 0 0 0 
0 0 0 0 0 0 0 0 
0 0 0 0 0 0 0 0 
0 0 0 0 0 0 0 0 
0 0 0 0 0 0 0 0 
0 0 0 0 0 0 0 0 
0 0 0 0 0 0 0 0 
0 0 0 0 0 0 0 0 
0 0 0 0 0 0 0 0 
0 0 0 0 0 0 0 0 
0 0 0 0 0 0 0 0 
0 0 0 0 0 0 0 0 
0 0 0 0 0 0 0 0 
0 0 0 0 0 0 0 0 
0 0 0 0 0 0 0 0 
0 0 0 0 0 0 0 0 
0 0 0 0 0 0 0 0 
0 0 0 0 0 0 0 0 
0 0 0 0 0 0 0 0 
0 0 0 0 0 0 0 0 
0 0 0 0 0 0 0 0 
0 0 0 0 0 0 0 0 
0 0 0 0 0 0 0 0 
0 0 0 0 0 0 0 0 
0 0 0 0 0 0 0 0 
0 0 0 0 0 0 0 0 
0 0 0 0 0 0 0 0 
0 0 0 0 0 0 0 0 
0 0 0 0 0 0 0 0 
0 0 0 0 0 0 0 0 
0 0 0 0 0 0 0 0 
0 0 0 0 0 0 0 0 
0 0 0 0 0 0 0 0 
0 0 0 0 0 0 0 0 
0 0 0 0 0 0 0 0 
0 0 0 0 0 0 0 0 
0 0 0 0 0 0 0 0 
0 0 0 0 0 0 0 0 
0 0 0 0 0 0 0 0 
0 0 0 0 0 0 0 0 
0 0 0 0 0 0 0 0 
0 0 0 0 0 0 0 0 
18.3828 4.36593e-05 0 0 18.3828 0 0 0 
0 0 0 0 0 0 0 0 
0 0 0 0 0 0 0 0 
0 0 0 0 0 0 0 0 
0 0 0 0 0 0 0 0 
0 0 0 0 0 0 0 0 
0 0 0 0 0 0 0 0 
0 0 0 0 0 0 0 0 
0 0 0 0 0 0 0 0 
0 0 0 0 0 0 0 0 
0 0 0 0 0 0 0 0 
0 0 0 0 0 0 0 0 
0 0 0 0 0 0 0 0 
0 0 0 0 0 0 0 0 
0 0 0 0 0 0 0 0 
0 0 0 0 0 0 0 0 
0 0 0 0 0 0 0 0 
0 0 0 0 0 0 0 0 
0 0 0 0 0 0 0 0 
0 0 0 0 0 0 0 0 
0 0 0 0 0 0 0 0 
0 0 0 0 0 0 0 0 
0 0 0 0 0 0 0 0 
0 0 0 0 0 0 0 0 
0 0 0 0 0 0 0 0 
0 0 0 0 0 0 0 0 
0 0 0 0 0 0 0 0 
0 0 0 0 0 0 0 0 
0 0 0 0 0 0 0 0 
0 0 0 0 0 0 0 0 
0 0 0 0 0 0 0 0 
0 0 0 0 0 0 0 0 
0 0 0 0 0 0 0 0 
0 0 0 0 0 0 0 0 
0 0 0 0 0 0 0 0 
0 0 0 0 0 0 0 0 
0 0 0 0 0 0 0 0 
0 0 0 0 0 0 0 0 
0 0 0 0 0 0 0 0 
0 0 0 0 0 0 0 0 
0 0 0 0 0 0 0 0 
0 0 0 0 0 0 0 0 
0 0 0 0 0 0 0 0 
0 0 0 0 0 0 0 0 
0 0 0 0 0 0 0 0 
0 0 0 0 0 0 0 0 
0 0 0 0 0 0 0 0 
0 0 0 0 0 0 0 0 
0 0 0 0 0 0 0 0 
0 0 0 0 0 0 0 0 
0 0 0 0 0 0 0 0 
0 0 0 0 0 0 0 0 
0 0 0 0 0 0 0 0 
0 0 0 0 0 0 0 0 
0 0 0 0 0 0 0 0 
0 0 0 0 0 0 0 0 
0 0 0 0 0 0 0 0 
0 0 0 0 0 0 0 0 
0 0 0 0 0 0 0 0 
0 0 0 0 0 0 0 0 
0 0 0 0 0 0 0 0 
0 0 0 0 0 0 0 0 
0 0 0 0 0 0 0 0 
0 0 0 0 0 0 0 0 
0 0 0 0 0 0 0 0 
0 0 0 0 0 0 0 0 
0 0 0 0 0 0 0 0 
0 0 0 0 0 0 0 0 
0 0 0 0 0 0 0 0 
0 0 0 0 0 0 0 0 
0 0 0 0 0 0 0 0 
0 0 0 0 0 0 0 0 
0 0 0 0 0 0 0 0 
0 0 0 0 0 0 0 0 
0 0 0 0 0 0 0 0 
0 0 0 0 0 0 0 0 
0 0 0 0 0 0 0 0 
0 0 0 0 0 0 0 0 
0 0 0 0 0 0 0 0 
0 0 0 0 0 0 0 0 
0 0 0 0 0 0 0 0 
0 0 0 0 0 0 0 0 
0 0 0 0 0 0 0 0 
0 0 0 0 0 0 0 0 
0 0 0 0 0 0 0 0 
0 0 0 0 0 0 0 0 
0 0 0 0 0 0 0 0 
0 0 0 0 0 0 0 0 
0 0 0 0 0 0 0 0 
0 0 0 0 0 0 0 0 
0 0 0 0 0 0 0 0 
0 0 0 0 0 0 0 0 
0 0 0 0 0 0 0 0 
0 0 0 0 0 0 0 0 
0 0 0 0 0 0 0 0 
0 0 0 0 0 0 0 0 
0 0 0 0 0 0 0 0 
0 0 0 0 0 0 0 0 
0 0 0 0 0 0 0 0 
0 0 0 0 0 0 0 0 
0 0 0 0 0 0 0 0 
0 0 0 0 0 0 0 0 
0 0 0 0 0 0 0 0 
0 0 0 0 0 0 0 0 
0 0 0 0 0 0 0 0 
0 0 0 0 0 0 0 0 
0 0 0 0 0 0 0 0 
0 0 0 0 0 0 0 0 
0 0 0 0 0 0 0 0 
0 0 0 0 0 0 0 0 
0 0 0 0 0 0 0 0 
0 0 0 0 0 0 0 0 
0 0 0 0 0 0 0 0 
0 0 0 0 0 0 0 0 
0 0 0 0 0 0 0 0 
0 0 0 0 0 0 0 0 
0 0 0 0 0 0 0 0 
0 0 0 0 0 0 0 0 
0 0 0 0 0 0 0 0 
0 0 0 0 0 0 0 0 
0 0 0 0 0 0 0 0 
0 0 0 0 0 0 0 0 
0 0 0 0 0 0 0 0 
0 0 0 0 0 0 0 0 
3.47502 8.47038e-06 0 0 3.47502 0 0 0 
0 0 0 0 0 0 0 0 
0 0 0 0 0 0 0 0 
0 0 0 0 0 0 0 0 
0 0 0 0 0 0 0 0 
0 0 0 0 0 0 0 0 
0 0 0 0 0 0 0 0 
0 0 0 0 0 0 0 0 
0 0 0 0 0 0 0 0 
0 0 0 0 0 0 0 0 
0 0 0 0 0 0 0 0 
0 0 0 0 0 0 0 0 
0 0 0 0 0 0 0 0 
0 0 0 0 0 0 0 0 
0 0 0 0 0 0 0 0 
0 0 0 0 0 0 0 0 
0 0 0 0 0 0 0 0 
0 0 0 0 0 0 0 0 
0 0 0 0 0 0 0 0 
0 0 0 0 0 0 0 0 
0 0 0 0 0 0 0 0 
0 0 0 0 0 0 0 0 
0 0 0 0 0 0 0 0 
0 0 0 0 0 0 0 0 
0 0 0 0 0 0 0 0 
0 0 0 0 0 0 0 0 
0 0 0 0 0 0 0 0 
0 0 0 0 0 0 0 0 
0 0 0 0 0 0 0 0 
0 0 0 0 0 0 0 0 
0 0 0 0 0 0 0 0 
0 0 0 0 0 0 0 0 
0 0 0 0 0 0 0 0 
0 0 0 0 0 0 0 0 
0 0 0 0 0 0 0 0 
0 0 0 0 0 0 0 0 
0 0 0 0 0 0 0 0 
0 0 0 0 0 0 0 0 
0 0 0 0 0 0 0 0 
0 0 0 0 0 0 0 0 
0 0 0 0 0 0 0 0 
0 0 0 0 0 0 0 0 
0 0 0 0 0 0 0 0 
0 0 0 0 0 0 0 0 
0 0 0 0 0 0 0 0 
0 0 0 0 0 0 0 0 
0 0 0 0 0 0 0 0 
0 0 0 0 0 0 0 0 
0 0 0 0 0 0 0 0 
0 0 0 0 0 0 0 0 
0 0 0 0 0 0 0 0 
0 0 0 0 0 0 0 0 
0 0 0 0 0 0 0 0 
0 0 0 0 0 0 0 0 
0 0 0 0 0 0 0 0 
0 0 0 0 0 0 0 0 
0 0 0 0 0 0 0 0 
0 0 0 0 0 0 0 0 
0 0 0 0 0 0 0 0 
0 0 0 0 0 0 0 0 
0 0 0 0 0 0 0 0 
19.4065 4.73032e-05 0 0 19.4065 0 0 0 
0 0 0 0 0 0 0 0 
0 0 0 0 0 0 0 0 
0 0 0 0 0 0 0 0 
0 0 0 0 0 0 0 0 
0 0 0 0 0 0 0 0 
0 0 0 0 0 0 0 0 
0.0136497 0 -7.98507e-06 0 0 -0.0136497 0 0 
0.0165423 0 -9.67723e-06 0 0 -0.0165423 0 0 
2.33513 -0.000287925 0.000281554 -0.000284129 -1.16757 1.42997 -1.42997 453.082 
1.77423 -0.000235901 0.000206726 -0.000209095 -0.887115 1.08648 -1.0865 565.373 
0.0300475 -0.000414011 0.000268057 0.000280111 0 0.0212468 0.0212468 54.3081 
0.0210483 -0.000689411 0.000431587 0.00042123 4.99303e-10 0.0148834 0.0148834 42.6699 
0.0216241 -0.00012658 9.50176e-05 9.46489e-05 0 0.0152906 0.0152906 38.869 
0.0318113 -0.000316145 0.000470421 6.07987e-06 0 0.0318113 0 37.0711 
0.0202242 -0.000223762 0.000299073 -1.41973e-05 0 0.0202242 0 27.5763 
0.0298483 -0.000210553 -2.84693e-06 0.000441393 0 0 0.0298483 25.3369 
0.017497 -0.000317025 1.96073e-05 0.000258743 0 0 0.017497 38.895 
0.0265273 -0.000785947 0.000548873 0.000525941 0 0.0187577 0.0187577 47.8894 
0.0229867 -0.000175829 0.000204829 0.000214524 -3.35571e-10 0.016254 0.016254 25.6306 
0.0197524 -9.76614e-05 8.45903e-05 8.86588e-05 0 0.013967 0.013967 28.8003 
2.05886 -0.000255631 -0.000247686 0.000249625 -1.02943 -1.26079 1.26079 427.365 
2.74118 -0.000365269 -0.00031615 0.000325634 -1.37059 -1.67861 1.67863 1007.41 
0.0242577 -0.000677859 -0.000498543 -0.000484311 0 -0.0171528 -0.0171528 40.198 
0.0226322 -0.000264078 -0.000211469 -0.000201418 1.19236e-09 -0.0160034 -0.0160034 33.7688 
0.031746 -0.00014218 -0.000139713 -0.000138733 0 -0.0224478 -0.0224478 38.7204 
0.0294556 -0.000189113 -0.000435585 7.00365e-06 0 -0.0294556 0 23.2977 
0.0169908 -0.000301003 -0.000251258 -2.52671e-06 0 -0.0169908 0 34.2166 
0.0291161 -0.000255868 -2.47778e-05 -0.000430566 0 0 -0.0291161 32.6936 
0.0234554 -0.000278362 -4.62653e-06 -0.000346855 0 0 -0.0234554 35.8573 
0.0258738 -0.000217497 -0.000233707 -0.000238318 0 -0.0182955 -0.0182955 29.5896 
0.022442 -0.000555571 -0.000454441 -0.000454848 -1.47515e-10 -0.0158689 -0.0158689 34.7119 
0.0244312 -0.00014376 -0.000103292 -0.000110996 0 -0.0172755 -0.0172755 44.3501 
0.234283 -4.05167e-05 4.53115e-06 -0.000137055 0 0 -0.234283 195.889 
0.158534 -1.74272e-05 2.56268e-06 -9.27424e-05 0 0 -0.158534 38.6093 
0.168173 -2.70597e-05 -9.58585e-05 -5.85684e-06 0 -0.168173 0 80.9104 
0.271656 -3.97937e-05 -0.000154844 -7.02834e-06 0 -0.271656 0 110.282 
0.26904 -3.55863e-05 -9.77554e-06 0.000157388 0 0 0.26904 101.694 
0.185659 -2.50814e-05 -1.86891e-06 0.00010861 0 0 0.185659 124.13 
0.190485 -3.7969e-05 0.000108577 -3.7962e-06 0 0.190485 0 115.046 
0.195784 -4.3994e-05 0.000111597 -1.16445e-05 0 0.195784 0 126.083 
0.0109903 0 6.26449e-06 0 0 0.0109903 0 7.09327e-16 
0.0370567 -2.65858e-05 2.11223e-05 4.58128e-07 0 0.0370567 0 82.6922 
0.0515918 -1.56592e-05 -7.68802e-06 -2.94073e-05 0 0 -0.0515918 76.9097 
0.0455686 -1.58284e-05 -1.53414e-06 -2.59741e-05 0 0 -0.0455686 46.6446 
0.0380515 -3.4925e-06 -2.16894e-05 -5.14408e-07 0 -0.0380515 0 1.17298 
0.0196867 7.90467e-06 -1.12214e-05 -6.71429e-06 0 -0.0196867 0 -2.73962 
0.0497228 2.85638e-07 1.73876e-06 2.8342e-05 0 -9.7488e-09 0.0497228 -1.03932 
0.0404651 0 -4.52222e-12 2.30651e-05 0 -7.93371e-09 0.0404651 1.41865e-14 
0.0685366 -2.02295e-05 3.90659e-05 1.34823e-06 0 0.0685366 0 57.0918 
0.0474132 -3.82284e-05 2.70255e-05 -2.65121e-06 0 0.0474132 0 177.63 
0.0605817 -6.18063e-05 -1.18341e-07 -3.45316e-05 0 0 -0.0605817 193.334 
0.0395489 4.06098e-06 4.14004e-06 -2.25429e-05 0 0 -0.0395489 1.56681 
0.0661929 0 -3.773e-05 0 0 -0.0661929 0 1.63145e-14 
0.0297782 -2.29039e-05 -1.69735e-05 -8.19666e-07 0 -0.0297782 0 71.5403 
0.0452306 -6.81003e-06 3.81383e-06 2.57814e-05 0 0 0.0452306 24.1634 
0.033186 0 0 1.8916e-05 0 0 0.033186 2.95553e-15 
0.0632996 7.4162e-07 -3.60808e-05 -4.17824e-06 0 -0.0632996 0 0.304105 
0.0895701 -3.82784e-05 -5.1055e-05 -5.98549e-07 0 -0.0895701 0 126.805 
0.197854 -2.47095e-05 2.91149e-07 0.000112777 0 0 0.197854 67.6409 
0.12575 -4.647e-05 -1.75129e-06 7.16773e-05 0 0 0.12575 142.585 
0.0733088 9.02305e-07 4.1786e-05 -1.4405e-07 0 0.0733088 0 -2.41709 
0.0630931 8.32239e-07 3.59631e-05 1.3664e-06 0 0.0630931 0 -1.85022 
0.115868 -4.95195e-05 1.90982e-05 -6.60447e-05 0 0 -0.115868 186.01 
0.205871 -2.36217e-05 -7.03551e-06 -0.000117347 0 0 -0.205871 75.584 
0.145948 -4.38312e-05 8.31904e-05 -8.58022e-06 0 0.145948 0 160.693 
0.0785038 -1.79753e-05 4.47472e-05 2.01835e-07 0 0.0785038 0 46.528 
0.0501198 -3.56304e-05 6.84186e-06 -2.85683e-05 0 0 -0.0501198 88.6222 
0.0806354 9.85712e-07 4.73166e-06 -4.59622e-05 0 0 -0.0806354 1.14429 
0.262242 -1.48543e-05 -0.000149478 -7.51574e-06 0 -0.262242 0 48.6597 
0.00458447 -2.15843e-05 -2.61315e-06 -1.32693e-06 0 -0.00458447 0 62.1619 
0.0998189 -1.16575e-05 8.11222e-06 5.68968e-05 0 0 0.0998189 29.0433 
0.086568 -2.1569e-05 6.08745e-07 4.93438e-05 0 0 0.086568 76.495 
0.229401 -1.87402e-05 0.000130759 -1.77511e-06 0 0.229401 0 71.5466 
0.0155919 1.51173e-06 8.88738e-06 -1.41723e-06 0 0.0155919 0 0.168654 
0.0964779 -2.79913e-05 1.81359e-05 -5.49924e-05 0 0 -0.0964779 149.46 
0.0726196 -3.33785e-05 1.00903e-05 -4.13932e-05 0 0 -0.0726196 120.154 
0.210533 -8.63152e-06 -0.000120004 -2.48329e-05 0 -0.210533 0 96.8176 
0.126966 0 -7.23704e-05 0 0 -0.126966 0 0 
0.203909 -2.92196e-05 -5.82687e-06 0.000116228 0 0 0.203909 89.3224 
0.0899677 2.84008e-06 3.96292e-06 5.12816e-05 0 0 0.0899677 1.12381 
0.120594 -1.14022e-05 3.56334e-06 -6.87384e-05 0 0 -0.120594 25.5694 
0.0845228 0 0 -4.8178e-05 0 0 -0.0845228 2.94371e-14 
0.0623017 0 -3.5512e-05 0 0 -0.0623017 0 1.59598e-14 
0.070345 -2.95813e-06 -4.00966e-05 -2.58658e-07 0 -0.070345 0 -2.30796 
0.100177 -5.17303e-05 1.08485e-05 5.7101e-05 0 0 0.100177 160.976 
0.108193 -1.78202e-05 1.34771e-06 6.16699e-05 0 0 0.108193 51.3854 
0.0733961 0 4.18358e-05 0 0 0.0733961 0 2.36738e-14 
0.0462699 3.03451e-06 2.63738e-05 1.73845e-06 0 0.0462699 0 -0.746427 
0.156241 0 8.90571e-05 0 0 0.156241 0 5.56821e-14 
0.167312 -5.72442e-05 9.53676e-05 5.61844e-06 0 0.167312 0 151.319 
0.0611923 -1.8108e-07 3.42662e-06 -3.48796e-05 0 0 -0.0611923 -0.571424 
0.155491 5.45046e-07 3.58013e-07 -8.86301e-05 0 0 -0.155491 -0.514787 
0.221087 -2.91784e-06 -0.00012602 6.84677e-06 0 -0.221087 0 25.238 
0.0796057 -4.95628e-05 -4.53753e-05 6.76732e-06 0 -0.0796057 0 144.343 
0.082296 0 0 4.69087e-05 0 0 0.082296 0 
0.136463 -3.25591e-05 -8.4796e-06 7.77837e-05 0 0 0.136463 80.5518 
0.124943 -1.89025e-05 6.22341e-07 -7.12174e-05 0 0 -0.124943 81.7416 
0.0679891 -2.57973e-05 1.65209e-06 -3.87538e-05 0 0 -0.0679891 84.3015 
0.167233 -2.14397e-05 -9.5323e-05 9.88566e-06 0 -0.167233 0 63.2766 
0.0700561 -3.05364e-05 -3.9932e-05 7.7584e-06 0 -0.0700561 0 100.634 
0.0960847 -2.8983e-06 -3.77813e-08 5.47683e-05 0 0 0.0960847 2.0476 
0.0841902 -4.9304e-05 7.63283e-06 4.79884e-05 0 0 0.0841902 150.673 
0.133062 -3.08787e-05 7.58451e-05 4.36023e-06 0 0.133062 2.60885e-08 79.7415 
0.0571913 -2.44183e-06 3.2599e-05 -1.58013e-06 0 0.0571913 1.12131e-08 2.03871 
0.120277 -1.73825e-05 -2.9519e-06 -6.8558e-05 0 0 -0.120277 57.4893 
0.104705 -4.08284e-05 -2.10316e-07 -5.96817e-05 0 0 -0.104705 124.737 
0.0605682 -7.16001e-06 -3.45239e-05 -3.67412e-06 0 -0.0605682 -1.18758e-08 36.137 
0.0927989 0 -5.28954e-05 -1.03714e-11 0 -0.0927989 -1.81954e-08 -1.18221e-16 
0.157855 0 0 8.99772e-05 0 0 0.157855 4.04316e-14 
0.114956 -1.4002e-05 5.43605e-07 6.55249e-05 0 0 0.114956 41.4177 
0.0923242 -2.74942e-05 5.26248e-05 4.68733e-06 0 0.0923242 0 78.2655 
0.0592791 -5.20264e-07 3.37891e-05 7.27098e-07 0 0.0592791 0 0.961996 
0.0379748 -3.07094e-05 -7.93921e-06 2.22153e-05 0 0 0.0379748 97.5943 
0.0190225 2.84871e-06 1.03686e-07 1.11281e-05 0 0 0.0190225 0.985729 
0.300134 -4.7641e-05 0.000171077 -1.25676e-06 0 0.300134 0 134.459 
0.0296962 -9.22228e-06 1.69268e-05 -4.79121e-06 0 0.0296962 0 23.7544 
0.0499446 -5.86066e-06 6.45169e-06 -2.92176e-05 0 0 -0.0499446 3.50049 
0.0184338 0 0 -1.07837e-05 0 0 -0.0184338 0 
0.0382945 -2.5049e-05 -2.18279e-05 1.72325e-06 0 -0.0382945 0 71.6318 
0.252553 -1.88879e-05 -0.000143955 -1.23162e-07 0 -0.252553 0 56.8179 
0.0564563 -3.93028e-05 -2.01348e-06 3.30269e-05 0 0 0.0564563 122.107 
0.0460429 0 0 2.69351e-05 0 0 0.0460429 0 
0.0338985 0 1.93221e-05 0 0 0.0338985 0 0 
0.0157643 -2.65225e-05 8.98564e-06 6.86066e-06 0 0.0157643 0 69.1929 
0.0778921 8.57707e-07 -5.58585e-07 -4.55668e-05 0 0 -0.0778921 -0.501246 
0.0679345 0 0 -3.97417e-05 0 0 -0.0679345 0 
0.0308222 0 -1.75686e-05 0 0 -0.0308222 0 0 
0.0217242 6.53006e-07 -1.23828e-05 7.88498e-07 0 -0.0217242 0 2.22221 
0.0475304 0 0 -2.70923e-05 0 0 -0.0475304 0 
0.0247382 -2.26732e-06 5.05152e-07 -1.41007e-05 0 0 -0.0247382 -0.866895 
0.117136 -2.42782e-05 -6.67675e-05 -1.37129e-05 0 -0.117136 0 86.7935 
0.0436425 0 -2.48762e-05 0 0 -0.0436425 0 0 
0.0363255 -2.14489e-05 1.52492e-06 2.07055e-05 0 0 0.0363255 64.754 
0.0148323 0 0 8.45441e-06 0 0 0.0148323 0 
0.0575283 -5.14307e-06 3.27911e-05 1.29476e-06 0 0.0575283 0 0.347403 
0.0439136 -2.22464e-05 2.50308e-05 -3.28964e-06 0 0.0439136 0 78.2278 
0.0251565 0 0 1.47165e-05 0 0 0.0251565 0 
0.0103053 -2.45994e-05 -1.38286e-06 6.02859e-06 0 0 0.0103053 60.0242 
0.0388013 0 2.26987e-05 0 0 0.0388013 0 0 
0.0292551 1.00571e-06 1.71142e-05 6.29845e-08 0 0.0292551 0 -0.847138 
0.0287224 2.03121e-06 -5.54719e-08 -1.68026e-05 0 0 -0.0287224 -0.685252 
0.00741547 0 0 -2.16902e-06 0 0 -0.00741547 0 
0.0146006 0 0 -4.27068e-06 0 0 -0.0146006 0 
0.0497916 -3.43378e-05 -2.91281e-05 -6.11722e-06 0 -0.0497916 0 113.194 
0.0128404 0 -3.75581e-06 0 0 -0.0128404 0 0 
0.0249262 0 -7.29092e-06 0 0 -0.0249262 0 0 
0.0922452 -9.37403e-05 6.8947e-06 5.39635e-05 0 0 0.0922452 284.305 
0.0488209 0 0 2.85602e-05 0 0 0.0488209 0 
0.0572615 -2.60793e-05 3.26391e-05 2.63006e-07 0 0.0572615 0 77.5208 
0.0198288 -1.59329e-06 1.13024e-05 -3.34873e-06 0 0.0198288 0 -0.418763 
0.106797 -1.73092e-06 1.46771e-06 -6.24761e-05 0 0 -0.106797 1.20091 
0.0306193 0 0 -1.79123e-05 0 0 -0.0306193 0 
0.0142183 0 -8.10446e-06 0 0 -0.0142183 0 0 
0.0514424 -3.02905e-05 -2.93222e-05 -2.85767e-07 0 -0.0514424 0 89.4775 
0.15649 -5.39303e-06 1.66051e-06 -8.91995e-05 0 0 -0.15649 13.4348 
0.12319 -3.99013e-05 3.47377e-06 -7.02182e-05 0 0 -0.12319 120.679 
0.0916176 -2.13503e-05 -5.35963e-05 2.5192e-06 0 -0.0916176 0 67.2303 
0.114866 -4.60217e-05 -6.71966e-05 3.08138e-07 0 -0.114866 0 135.788 
0.0339169 -3.1061e-07 -2.35877e-06 1.93326e-05 0 0 0.0339169 -1.2269 
0.18037 -5.06217e-05 1.60016e-06 0.000102811 0 0 0.18037 140.591 
0.108956 -6.87345e-05 6.37392e-05 -1.4259e-06 0 0.108956 0 184.632 
0.0863742 4.95885e-06 5.05289e-05 4.3127e-06 0 0.0863742 0 7.88277 
0.101497 -7.05e-05 5.78532e-05 -8.89117e-07 0 0.101497 0 239.869 
0.11741 -2.53027e-05 6.69239e-05 -7.94036e-06 0 0.11741 0 87.9279 
0.0829009 0 0 -4.72535e-05 0 0 -0.0829009 0 
0.042323 -1.41617e-05 -1.98306e-06 -2.41241e-05 0 0 -0.042323 40.7501 
0.122692 -8.88689e-06 -6.99342e-05 -3.62257e-06 0 -0.122692 0 35.3837 
0.0594161 8.86912e-06 -3.38672e-05 -1.30795e-05 0 -0.0594161 0 35.7956 
0.0267316 -2.45855e-06 5.47312e-06 1.5237e-05 0 0 0.0267316 5.62043 
0.100016 0 0 5.70091e-05 0 0 0.100016 0 
0.0740268 -1.24277e-05 4.21953e-05 5.61766e-06 0 0.0740268 0 28.171 
0.0797656 -3.25572e-05 4.54664e-05 -9.05718e-06 0 0.0797656 0 86.4262 
0.0738631 -3.0859e-05 -1.0979e-06 -4.2102e-05 0 0 -0.0738631 122.161 
0.0325549 -1.14602e-06 -5.07578e-06 -1.85563e-05 0 0 -0.0325549 -1.1464 
0.0366875 0 -2.09119e-05 0 0 -0.0366875 0 5.67461e-15 
0.0939215 -2.40089e-05 -5.35353e-05 2.51843e-06 0 -0.0939215 0 75.6631 
0.0349505 0 0 1.99218e-05 0 0 0.0349505 0 
0.0464278 -1.92763e-05 7.00539e-07 2.64638e-05 0 0 0.0464278 60.5944 