ITEM: TIMESTEP
30
ITEM: NUMBER OF SURFS
6916
ITEM: BOX BOUNDS oo rr rr
-0.35 0.35
-0.25 0.25
-0.25 0.25
ITEM: SURFS f_save[1] f_save[2] f_save[3] f_save[4] f_save[5] f_save[6] f_save[7] f_save[8] 
0 0 0 0 0 0 0 0 
0 0 0 0 0 0 0 0 
0 0 0 0 0 0 0 0 
0.195528 -3.58882e-05 5.8683e-05 -3.68719e-06 0 0.195528 0 236.599 
0.0129649 -5.53302e-05 3.89081e-06 -1.60448e-06 0 0.0129649 0 309.471 
0.199457 0 -5.9862e-05 0 0 -0.199457 0 0 
0 0 0 0 0 0 0 0 
0 0 0 0 0 0 0 0 
0 0 0 0 0 0 0 0 
0 0 0 0 0 0 0 0 
0 0 0 0 0 0 0 0 
0 0 0 0 0 0 0 0 
0 0 0 0 0 0 0 0 
46.7556 -0.000113967 0 0 -46.7556 0 0 0 
0 0 0 0 0 0 0 0 
0 0 0 0 0 0 0 0 
0 0 0 0 0 0 0 0 
0 0 0 0 0 0 0 0 
0 0 0 0 0 0 0 0 
32.0604 -7.81473e-05 0 0 -32.0604 0 0 0 
0 0 0 0 0 0 0 0 
0 0 0 0 0 0 0 0 
43.7357 -0.000103872 0 0 -43.7357 0 0 0 
0 0 0 0 0 0 0 0 
0 0 0 0 0 0 0 0 
0 0 0 0 0 0 0 0 
0 0 0 0 0 0 0 0 
0 0 0 0 0 0 0 0 
0 0 0 0 0 0 0 0 
32.6423 -7.95657e-05 0 0 -32.6423 0 0 0 
0 0 0 0 0 0 0 0 
0 0 0 0 0 0 0 0 
26.2905 -6.244e-05 7.33782e-06 -2.40369e-06 -26.2905 0 0 44327.7 
0 0 0 0 0 0 0 0 
0 0 0 0 0 0 0 0 
0 0 0 0 0 0 0 0 
0 0 0 0 0 0 0 0 
0 0 0 0 0 0 0 0 
42.8392 -0.000101743 0 0 -42.8392 0 0 0 
0 0 0 0 0 0 0 0 
0 0 0 0 0 0 0 0 
0 0 0 0 0 0 0 0 
0 0 0 0 0 0 0 0 
41.7923 -9.9257e-05 0 0 -41.7923 0 0 0 
0 0 0 0 0 0 0 0 
0 0 0 0 0 0 0 0 
26.1144 -6.36537e-05 0 0 -26.1144 0 0 0 
14.94 -3.64161e-05 -4.67473e-06 -2.15949e-06 -14.94 0 0 26777.7 
0 0 0 0 0 0 0 0 
44.4579 -0.000108366 0 0 -44.4579 0 0 0 
0 0 0 0 0 0 0 0 
0 0 0 0 0 0 0 0 
0 0 0 0 0 0 0 0 
0 0 0 0 0 0 0 0 
0 0 0 0 0 0 0 0 
0 0 0 0 0 0 0 0 
0 0 0 0 0 0 0 0 
0 0 0 0 0 0 0 0 
0 0 0 0 0 0 0 0 
48.7565 -0.000115797 0 0 -48.7565 0 0 0 
0 0 0 0 0 0 0 0 
0 0 0 0 0 0 0 0 
42.1774 -0.000102808 0 0 -42.1774 0 0 0 
47.7455 -0.00011638 0 0 -47.7455 0 0 0 
0 0 0 0 0 0 0 0 
0 0 0 0 0 0 0 0 
0 0 0 0 0 0 0 0 
0 0 0 0 0 0 0 0 
0 0 0 0 0 0 0 0 
0 0 0 0 0 0 0 0 
0 0 0 0 0 0 0 0 
0 0 0 0 0 0 0 0 
0 0 0 0 0 0 0 0 
0 0 0 0 0 0 0 0 
0 0 0 0 0 0 0 0 
0 0 0 0 0 0 0 0 
0 0 0 0 0 0 0 0 
0 0 0 0 0 0 0 0 
0 0 0 0 0 0 0 0 
0 0 0 0 0 0 0 0 
0 0 0 0 0 0 0 0 
0 0 0 0 0 0 0 0 
0 0 0 0 0 0 0 0 
32.6637 -7.75765e-05 0 0 -32.6637 0 0 0 
0 0 0 0 0 0 0 0 
0 0 0 0 0 0 0 0 
0 0 0 0 0 0 0 0 
0 0 0 0 0 0 0 0 
0 0 0 0 0 0 0 0 
0 0 0 0 0 0 0 0 
0 0 0 0 0 0 0 0 
0 0 0 0 0 0 0 0 
0 0 0 0 0 0 0 0 
0 0 0 0 0 0 0 0 
44.6787 -0.000108905 0 0 -44.6787 0 0 0 
24.2423 -5.90908e-05 7.51383e-06 5.33467e-07 -24.2423 0 0 39581.5 
75.2353 -0.000178684 0 0 -75.2353 0 0 0 
0 0 0 0 0 0 0 0 
0 0 0 0 0 0 0 0 
0 0 0 0 0 0 0 0 
0 0 0 0 0 0 0 0 
26.5427 -6.30391e-05 -1.67373e-06 1.80673e-06 -26.5427 0 0 49677 
0 0 0 0 0 0 0 0 
0 0 0 0 0 0 0 0 
0 0 0 0 0 0 0 0 
0 0 0 0 0 0 0 0 
0 0 0 0 0 0 0 0 
0 0 0 0 0 0 0 0 
0 0 0 0 0 0 0 0 
0 0 0 0 0 0 0 0 
0 0 0 0 0 0 0 0 
0 0 0 0 0 0 0 0 
0 0 0 0 0 0 0 0 
0 0 0 0 0 0 0 0 
0 0 0 0 0 0 0 0 
0 0 0 0 0 0 0 0 
0 0 0 0 0 0 0 0 
0 0 0 0 0 0 0 0 
0 0 0 0 0 0 0 0 
0 0 0 0 0 0 0 0 
0 0 0 0 0 0 0 0 
0 0 0 0 0 0 0 0 
0 0 0 0 0 0 0 0 
0 0 0 0 0 0 0 0 
23.6992 -5.62858e-05 -2.61511e-06 -7.81416e-06 -23.6992 0 0 37950.4 
0 0 0 0 0 0 0 0 
0 0 0 0 0 0 0 0 
0 0 0 0 0 0 0 0 
0 0 0 0 0 0 0 0 
0 0 0 0 0 0 0 0 
0 0 0 0 0 0 0 0 
0 0 0 0 0 0 0 0 
0 0 0 0 0 0 0 0 
40.5698 -9.8889e-05 0 0 -40.5698 0 0 0 
0 0 0 0 0 0 0 0 
0 0 0 0 0 0 0 0 
0 0 0 0 0 0 0 0 
0 0 0 0 0 0 0 0 
0 0 0 0 0 0 0 0 
0 0 0 0 0 0 0 0 
0 0 0 0 0 0 0 0 
0 0 0 0 0 0 0 0 
0 0 0 0 0 0 0 0 
0 0 0 0 0 0 0 0 
0 0 0 0 0 0 0 0 
0 0 0 0 0 0 0 0 
0 0 0 0 0 0 0 0 
0 0 0 0 0 0 0 0 
0 0 0 0 0 0 0 0 
0 0 0 0 0 0 0 0 
0 0 0 0 0 0 0 0 
26.8252 -6.53864e-05 1.69667e-06 -3.54164e-06 -26.8252 0 0 38885.2 
0 0 0 0 0 0 0 0 
0 0 0 0 0 0 0 0 
0 0 0 0 0 0 0 0 
0 0 0 0 0 0 0 0 
0 0 0 0 0 0 0 0 
0 0 0 0 0 0 0 0 
0 0 0 0 0 0 0 0 
0 0 0 0 0 0 0 0 
0 0 0 0 0 0 0 0 
0 0 0 0 0 0 0 0 
0 0 0 0 0 0 0 0 
0 0 0 0 0 0 0 0 
0 0 0 0 0 0 0 0 
0 0 0 0 0 0 0 0 
0 0 0 0 0 0 0 0 
0 0 0 0 0 0 0 0 
0 0 0 0 0 0 0 0 
0 0 0 0 0 0 0 0 
0 0 0 0 0 0 0 0 
0 0 0 0 0 0 0 0 
0 0 0 0 0 0 0 0 
0 0 0 0 0 0 0 0 
0 0 0 0 0 0 0 0 
28.5551 -6.78183e-05 0 0 -28.5551 0 0 0 
0 0 0 0 0 0 0 0 
0 0 0 0 0 0 0 0 
0 0 0 0 0 0 0 0 
0 0 0 0 0 0 0 0 
0 0 0 0 0 0 0 0 
0 0 0 0 0 0 0 0 
0 0 0 0 0 0 0 0 
0 0 0 0 0 0 0 0 
0 0 0 0 0 0 0 0 
0 0 0 0 0 0 0 0 
46.9742 -0.000111563 0 0 -46.9742 0 0 0 
0 0 0 0 0 0 0 0 
0 0 0 0 0 0 0 0 
0 0 0 0 0 0 0 0 
0 0 0 0 0 0 0 0 
0 0 0 0 0 0 0 0 
0 0 0 0 0 0 0 0 
0 0 0 0 0 0 0 0 
0 0 0 0 0 0 0 0 
0 0 0 0 0 0 0 0 
0 0 0 0 0 0 0 0 
0 0 0 0 0 0 0 0 
0 0 0 0 0 0 0 0 
0 0 0 0 0 0 0 0 
0 0 0 0 0 0 0 0 
0 0 0 0 0 0 0 0 
0 0 0 0 0 0 0 0 
0 0 0 0 0 0 0 0 
0 0 0 0 0 0 0 0 
0 0 0 0 0 0 0 0 
0 0 0 0 0 0 0 0 
0 0 0 0 0 0 0 0 
0 0 0 0 0 0 0 0 
0 0 0 0 0 0 0 0 
0 0 0 0 0 0 0 0 
0 0 0 0 0 0 0 0 
0 0 0 0 0 0 0 0 
0 0 0 0 0 0 0 0 
48.1144 -0.000114272 0 0 -48.1144 0 0 0 
0 0 0 0 0 0 0 0 
0 0 0 0 0 0 0 0 
0 0 0 0 0 0 0 0 
0 0 0 0 0 0 0 0 
0 0 0 0 0 0 0 0 
0 0 0 0 0 0 0 0 
0 0 0 0 0 0 0 0 
0 0 0 0 0 0 0 0 
0 0 0 0 0 0 0 0 
0 0 0 0 0 0 0 0 
0 0 0 0 0 0 0 0 
0 0 0 0 0 0 0 0 
0 0 0 0 0 0 0 0 
0 0 0 0 0 0 0 0 
0 0 0 0 0 0 0 0 
0 0 0 0 0 0 0 0 
0 0 0 0 0 0 0 0 
0 0 0 0 0 0 0 0 
0 0 0 0 0 0 0 0 
0 0 0 0 0 0 0 0 
0 0 0 0 0 0 0 0 
0 0 0 0 0 0 0 0 
0 0 0 0 0 0 0 0 
0 0 0 0 0 0 0 0 
0 0 0 0 0 0 0 0 
0 0 0 0 0 0 0 0 
0 0 0 0 0 0 0 0 
0 0 0 0 0 0 0 0 
0 0 0 0 0 0 0 0 
0 0 0 0 0 0 0 0 
0 0 0 0 0 0 0 0 
0 0 0 0 0 0 0 0 
0 0 0 0 0 0 0 0 
0 0 0 0 0 0 0 0 
0 0 0 0 0 0 0 0 
0 0 0 0 0 0 0 0 
0 0 0 0 0 0 0 0 
0 0 0 0 0 0 0 0 
0 0 0 0 0 0 0 0 
0 0 0 0 0 0 0 0 
0 0 0 0 0 0 0 0 
0 0 0 0 0 0 0 0 
0 0 0 0 0 0 0 0 
0 0 0 0 0 0 0 0 
0 0 0 0 0 0 0 0 
0 0 0 0 0 0 0 0 
0 0 0 0 0 0 0 0 
0 0 0 0 0 0 0 0 
0 0 0 0 0 0 0 0 
0 0 0 0 0 0 0 0 
0 0 0 0 0 0 0 0 
0 0 0 0 0 0 0 0 
0 0 0 0 0 0 0 0 
0 0 0 0 0 0 0 0 
0 0 0 0 0 0 0 0 
0 0 0 0 0 0 0 0 
0 0 0 0 0 0 0 0 
0 0 0 0 0 0 0 0 
0 0 0 0 0 0 0 0 
0 0 0 0 0 0 0 0 
0 0 0 0 0 0 0 0 
0 0 0 0 0 0 0 0 
0 0 0 0 0 0 0 0 
0 0 0 0 0 0 0 0 
94.2609 -0.00022387 0 0 -94.2609 0 0 0 
0 0 0 0 0 0 0 0 
0 0 0 0 0 0 0 0 
0 0 0 0 0 0 0 0 
0 0 0 0 0 0 0 0 
0 0 0 0 0 0 0 0 
0 0 0 0 0 0 0 0 
0 0 0 0 0 0 0 0 
0 0 0 0 0 0 0 0 
0 0 0 0 0 0 0 0 
0 0 0 0 0 0 0 0 
0 0 0 0 0 0 0 0 
0 0 0 0 0 0 0 0 
0 0 0 0 0 0 0 0 
0 0 0 0 0 0 0 0 
0 0 0 0 0 0 0 0 
0 0 0 0 0 0 0 0 
0 0 0 0 0 0 0 0 
0 0 0 0 0 0 0 0 
0 0 0 0 0 0 0 0 
44.1957 -0.000104965 0 0 -44.1957 0 0 0 
0 0 0 0 0 0 0 0 
0 0 0 0 0 0 0 0 
524.771 -6.55965e-05 -2.54627e-06 -4.50951e-06 -524.771 0 0 855840 
0 0 0 0 0 0 0 0 
0 0 0 0 0 0 0 0 
0 0 0 0 0 0 0 0 
0 0 0 0 0 0 0 0 
0 0 0 0 0 0 0 0 
0 0 0 0 0 0 0 0 
0 0 0 0 0 0 0 0 
0 0 0 0 0 0 0 0 
0 0 0 0 0 0 0 0 
0 0 0 0 0 0 0 0 
0 0 0 0 0 0 0 0 
0 0 0 0 0 0 0 0 
0 0 0 0 0 0 0 0 
42.0097 -9.97732e-05 0 0 -42.0097 0 0 0 
0 0 0 0 0 0 0 0 
0 0 0 0 0 0 0 0 
0 0 0 0 0 0 0 0 
0 0 0 0 0 0 0 0 
44.4069 -0.000105467 0 0 -44.4069 0 0 0 
0 0 0 0 0 0 0 0 
0 0 0 0 0 0 0 0 
0 0 0 0 0 0 0 0 
43.1357 -0.000102447 0 0 -43.1357 0 0 0 
0 0 0 0 0 0 0 0 
0 0 0 0 0 0 0 0 
0 0 0 0 0 0 0 0 
0 0 0 0 0 0 0 0 
0 0 0 0 0 0 0 0 
0 0 0 0 0 0 0 0 
45.9974 -0.000112119 0 0 -45.9974 0 0 0 
0 0 0 0 0 0 0 0 
7.09619 -0.00349792 7.6593e-06 -1.0428e-05 -7.09619 0 0 2027.88 
8.10526 -0.000395132 0 0 -8.10526 0 0 0 
0 0 0 0 0 0 0 0 
3.57403 -0.000169766 7.04769e-07 9.89281e-06 -3.57403 0 0 2009.63 
0 0 0 0 0 0 0 0 
2.23706 -0.00010626 0 0 -2.23706 0 0 0 
0 0 0 0 0 0 0 0 
5.88766 -0.000279664 0 0 -5.88766 0 0 0 
43.1016 -0.000107754 0 0 -43.1016 0 0 0 
6.97164 -0.000331153 0 0 -6.97164 0 0 0 
3.34591 -8.36478e-06 0 0 -3.34591 0 0 0 
11.982 -0.000569147 -1.84156e-06 -2.11382e-06 -11.982 0 0 1848.27 
0 0 0 0 0 0 0 0 
4.31369 -0.0002049 0 0 -4.31369 0 0 0 
0 0 0 0 0 0 0 0 
2.36805 -0.000115442 0 0 -2.36805 0 0 0 
6.13228 -0.00267589 -7.38407e-06 -4.48136e-06 -6.13228 0 0 1782.88 
7.11096 -0.000495711 1.27664e-07 -1.91018e-06 -7.11096 0 0 396.281 
6.93382 -0.000596309 0 0 -6.93382 0 0 0 
7.48168 -0.000643423 -8.36013e-06 -7.11199e-06 -7.48168 0 0 2276.66 
6.85847 -0.000334351 -1.43526e-05 2.69515e-06 -6.85847 0 0 5253.06 
0 0 0 0 0 0 0 0 
4.58213 -0.000217651 0 0 -4.58213 0 0 0 
0 0 0 0 0 0 0 0 
0 0 0 0 0 0 0 0 
0 0 0 0 0 0 0 0 
6.99271 -0.000332154 0 0 -6.99271 0 0 0 
0 0 0 0 0 0 0 0 
2.19352 -0.000104192 0 0 -2.19352 0 0 0 
0 0 0 0 0 0 0 0 
10.3895 -0.000493502 0 0 -10.3895 0 0 0 
0 0 0 0 0 0 0 0 
8.22963 -0.000390907 -2.11087e-06 8.13033e-06 -8.22963 0 0 1904.4 
0 0 0 0 0 0 0 0 
1.18614 -5.78245e-05 -8.66705e-08 8.18013e-06 -1.18614 0 0 1928.8 
10.0168 -0.00048832 0 0 -10.0168 0 0 0 
7.73637 -0.00381348 -6.82634e-06 -1.70682e-05 -7.73637 0 0 1336.79 
3.88808 -0.000334374 -5.70321e-06 -3.5749e-06 -3.88808 0 0 1074.86 
0.73685 -6.33692e-05 0 0 -0.73685 0 0 0 
12.4026 -0.000162997 -2.76713e-06 -3.88979e-06 -12.4026 0 0 8364.01 
6.25303 -0.000304835 0 0 -6.25303 0 0 0 
0 0 0 0 0 0 0 0 
7.64128 -0.000362961 -2.58431e-05 -9.85855e-07 -7.64128 0 0 5328.51 
23.4108 -5.85271e-05 -4.64549e-06 6.78483e-07 -23.4108 0 0 36841.9 
4.64069 -0.000220433 4.67294e-06 5.52414e-06 -4.64069 0 0 3831.39 
0 0 0 0 0 0 0 0 
2.34909 -0.000111582 0 0 -2.34909 0 0 0 
0 0 0 0 0 0 0 0 
11.7829 -0.000559687 0 0 -11.7829 0 0 0 
0 0 0 0 0 0 0 0 
11.2562 -0.000534668 -4.52094e-06 -2.54699e-06 -11.2562 0 0 1876.32 
0 0 0 0 0 0 0 0 
9.20686 -0.000437326 -1.99495e-06 -1.70632e-06 -9.20686 0 0 4010.55 
0 0 0 0 0 0 0 0 
4.51115 -0.000219919 0 0 -4.51115 0 0 0 
6.08719 -0.00300055 -8.88823e-06 -1.3014e-05 -6.08719 0 0 504.89 
0 0 0 0 0 0 0 0 
6.9279 -0.000329075 0 0 -6.9279 0 0 0 
0 0 0 0 0 0 0 0 
4.66459 -0.000221568 0 0 -4.66459 0 0 0 
39.2606 -9.81516e-05 0 0 -39.2606 0 0 3.22015e-11 
7.66716 -0.00036419 1.99071e-06 2.31875e-06 -7.66716 0 0 1768.01 
0 0 0 0 0 0 0 0 
6.7168 -0.000319048 0 0 -6.7168 0 0 0 
43.2127 -0.000108032 0 0 -43.2127 0 0 0 
4.05722 -0.000192718 -4.16982e-06 4.3886e-07 -4.05722 0 0 776.588 
0 0 0 0 0 0 0 0 
4.47989 -0.000212795 0 0 -4.47989 0 0 0 
33.792 -8.44804e-05 0 0 -33.792 0 0 2.81762e-11 
8.77161 -0.000427616 0 0 -8.77161 0 0 0 
0.0215598 0 1.26125e-05 0 0 0.0215598 0 0 
0.0547042 0 1.6001e-05 0 0 0.0547042 0 0 
0 0 0 0 0 0 0 0 
0 0 0 0 0 0 0 0 
0 0 0 0 0 0 0 0 
0 0 0 0 0 0 0 0 
0 0 0 0 0 0 0 0 
0 0 0 0 0 0 0 0 
0 0 0 0 0 0 0 0 
0 0 0 0 0 0 0 0 
0 0 0 0 0 0 0 0 
0 0 0 0 0 0 0 0 
0 0 0 0 0 0 0 0 
0 0 0 0 0 0 0 0 
0 0 0 0 0 0 0 0 
0 0 0 0 0 0 0 0 
0 0 0 0 0 0 0 0 
0 0 0 0 0 0 0 0 
0 0 0 0 0 0 0 0 
0 0 0 0 0 0 0 0 
0 0 0 0 0 0 0 0 
0 0 0 0 0 0 0 0 
0 0 0 0 0 0 0 0 
0 0 0 0 0 0 0 0 
0 0 0 0 0 0 0 0 
0 0 0 0 0 0 0 0 
0 0 0 0 0 0 0 0 
0 0 0 0 0 0 0 0 
0 0 0 0 0 0 0 0 
0 0 0 0 0 0 0 0 
0 0 0 0 0 0 0 0 
0 0 0 0 0 0 0 0 
0 0 0 0 0 0 0 0 
0 0 0 0 0 0 0 0 
0 0 0 0 0 0 0 0 
0 0 0 0 0 0 0 0 
0 0 0 0 0 0 0 0 
0 0 0 0 0 0 0 0 
0 0 0 0 0 0 0 0 
0 0 0 0 0 0 0 0 
0 0 0 0 0 0 0 0 
0 0 0 0 0 0 0 0 
0 0 0 0 0 0 0 0 
0 0 0 0 0 0 0 0 
0 0 0 0 0 0 0 0 
0 0 0 0 0 0 0 0 
0 0 0 0 0 0 0 0 
0 0 0 0 0 0 0 0 
0 0 0 0 0 0 0 0 
0 0 0 0 0 0 0 0 
0 0 0 0 0 0 0 0 
0 0 0 0 0 0 0 0 
0 0 0 0 0 0 0 0 
0 0 0 0 0 0 0 0 
0 0 0 0 0 0 0 0 
0 0 0 0 0 0 0 0 
0 0 0 0 0 0 0 0 
0 0 0 0 0 0 0 0 
0 0 0 0 0 0 0 0 
0 0 0 0 0 0 0 0 
0 0 0 0 0 0 0 0 
0 0 0 0 0 0 0 0 
0 0 0 0 0 0 0 0 
0 0 0 0 0 0 0 0 
0 0 0 0 0 0 0 0 
0 0 0 0 0 0 0 0 
0 0 0 0 0 0 0 0 
0 0 0 0 0 0 0 0 
0 0 0 0 0 0 0 0 
0 0 0 0 0 0 0 0 
0 0 0 0 0 0 0 0 
0 0 0 0 0 0 0 0 
0 0 0 0 0 0 0 0 
0 0 0 0 0 0 0 0 
0 0 0 0 0 0 0 0 
0 0 0 0 0 0 0 0 
0 0 0 0 0 0 0 0 
0 0 0 0 0 0 0 0 
0 0 0 0 0 0 0 0 
0 0 0 0 0 0 0 0 
0 0 0 0 0 0 0 0 
0 0 0 0 0 0 0 0 
0 0 0 0 0 0 0 0 
0 0 0 0 0 0 0 0 
0 0 0 0 0 0 0 0 
0 0 0 0 0 0 0 0 
0 0 0 0 0 0 0 0 
0 0 0 0 0 0 0 0 
0 0 0 0 0 0 0 0 
0 0 0 0 0 0 0 0 
0 0 0 0 0 0 0 0 
0 0 0 0 0 0 0 0 
0 0 0 0 0 0 0 0 
0 0 0 0 0 0 0 0 
0 0 0 0 0 0 0 0 
0 0 0 0 0 0 0 0 
0 0 0 0 0 0 0 0 
0 0 0 0 0 0 0 0 
0 0 0 0 0 0 0 0 
0 0 0 0 0 0 0 0 
0 0 0 0 0 0 0 0 
0 0 0 0 0 0 0 0 
0 0 0 0 0 0 0 0 
0 0 0 0 0 0 0 0 
0 0 0 0 0 0 0 0 
0 0 0 0 0 0 0 0 
0 0 0 0 0 0 0 0 
0 0 0 0 0 0 0 0 
0 0 0 0 0 0 0 0 
0 0 0 0 0 0 0 0 
0 0 0 0 0 0 0 0 
0 0 0 0 0 0 0 0 
0 0 0 0 0 0 0 0 
0 0 0 0 0 0 0 0 
0 0 0 0 0 0 0 0 
0 0 0 0 0 0 0 0 
0 0 0 0 0 0 0 0 
0 0 0 0 0 0 0 0 
0 0 0 0 0 0 0 0 
0 0 0 0 0 0 0 0 
0 0 0 0 0 0 0 0 
0 0 0 0 0 0 0 0 
0 0 0 0 0 0 0 0 
0 0 0 0 0 0 0 0 
0 0 0 0 0 0 0 0 
0 0 0 0 0 0 0 0 
0 0 0 0 0 0 0 0 
0 0 0 0 0 0 0 0 
0 0 0 0 0 0 0 0 
0 0 0 0 0 0 0 0 
0 0 0 0 0 0 0 0 
0 0 0 0 0 0 0 0 
0 0 0 0 0 0 0 0 
0 0 0 0 0 0 0 0 
0 0 0 0 0 0 0 0 
0 0 0 0 0 0 0 0 
0 0 0 0 0 0 0 0 
0 0 0 0 0 0 0 0 
0 0 0 0 0 0 0 0 
0 0 0 0 0 0 0 0 
0 0 0 0 0 0 0 0 
0 0 0 0 0 0 0 0 
0 0 0 0 0 0 0 0 
0 0 0 0 0 0 0 0 
0 0 0 0 0 0 0 0 
0 0 0 0 0 0 0 0 
0 0 0 0 0 0 0 0 
0 0 0 0 0 0 0 0 
0 0 0 0 0 0 0 0 
0 0 0 0 0 0 0 0 
0 0 0 0 0 0 0 0 
0 0 0 0 0 0 0 0 
0 0 0 0 0 0 0 0 
0 0 0 0 0 0 0 0 
0 0 0 0 0 0 0 0 
0 0 0 0 0 0 0 0 
0 0 0 0 0 0 0 0 
0 0 0 0 0 0 0 0 
0 0 0 0 0 0 0 0 
0 0 0 0 0 0 0 0 
0 0 0 0 0 0 0 0 
0 0 0 0 0 0 0 0 
0 0 0 0 0 0 0 0 
0 0 0 0 0 0 0 0 
0 0 0 0 0 0 0 0 
0 0 0 0 0 0 0 0 
0 0 0 0 0 0 0 0 
0 0 0 0 0 0 0 0 
0 0 0 0 0 0 0 0 
0 0 0 0 0 0 0 0 
0 0 0 0 0 0 0 0 
0 0 0 0 0 0 0 0 
0 0 0 0 0 0 0 0 
0 0 0 0 0 0 0 0 
0 0 0 0 0 0 0 0 
0 0 0 0 0 0 0 0 
0 0 0 0 0 0 0 0 
0 0 0 0 0 0 0 0 
0 0 0 0 0 0 0 0 
0 0 0 0 0 0 0 0 
0 0 0 0 0 0 0 0 
0 0 0 0 0 0 0 0 
0 0 0 0 0 0 0 0 
0 0 0 0 0 0 0 0 
0 0 0 0 0 0 0 0 
0 0 0 0 0 0 0 0 
0 0 0 0 0 0 0 0 
0 0 0 0 0 0 0 0 
0 0 0 0 0 0 0 0 
0 0 0 0 0 0 0 0 
0 0 0 0 0 0 0 0 
0 0 0 0 0 0 0 0 
0 0 0 0 0 0 0 0 
0 0 0 0 0 0 0 0 
0 0 0 0 0 0 0 0 
0 0 0 0 0 0 0 0 
0 0 0 0 0 0 0 0 
0 0 0 0 0 0 0 0 
0 0 0 0 0 0 0 0 
0 0 0 0 0 0 0 0 
0 0 0 0 0 0 0 0 
0 0 0 0 0 0 0 0 
0 0 0 0 0 0 0 0 
0 0 0 0 0 0 0 0 
0 0 0 0 0 0 0 0 
0 0 0 0 0 0 0 0 
0 0 0 0 0 0 0 0 
0 0 0 0 0 0 0 0 
0 0 0 0 0 0 0 0 
0 0 0 0 0 0 0 0 
0 0 0 0 0 0 0 0 
0 0 0 0 0 0 0 0 
0 0 0 0 0 0 0 0 
0 0 0 0 0 0 0 0 
0 0 0 0 0 0 0 0 
0 0 0 0 0 0 0 0 
0 0 0 0 0 0 0 0 
0 0 0 0 0 0 0 0 
0 0 0 0 0 0 0 0 
0 0 0 0 0 0 0 0 
0 0 0 0 0 0 0 0 
0 0 0 0 0 0 0 0 
0 0 0 0 0 0 0 0 
0 0 0 0 0 0 0 0 
0 0 0 0 0 0 0 0 
0 0 0 0 0 0 0 0 
0 0 0 0 0 0 0 0 
0 0 0 0 0 0 0 0 
0 0 0 0 0 0 0 0 
0 0 0 0 0 0 0 0 
0 0 0 0 0 0 0 0 
0 0 0 0 0 0 0 0 
0 0 0 0 0 0 0 0 
0 0 0 0 0 0 0 0 
0 0 0 0 0 0 0 0 
0 0 0 0 0 0 0 0 
0 0 0 0 0 0 0 0 
0 0 0 0 0 0 0 0 
0 0 0 0 0 0 0 0 
0 0 0 0 0 0 0 0 
0 0 0 0 0 0 0 0 
0 0 0 0 0 0 0 0 
0 0 0 0 0 0 0 0 
0 0 0 0 0 0 0 0 
0 0 0 0 0 0 0 0 
0 0 0 0 0 0 0 0 
0 0 0 0 0 0 0 0 
0 0 0 0 0 0 0 0 
0 0 0 0 0 0 0 0 
0 0 0 0 0 0 0 0 
0 0 0 0 0 0 0 0 
0 0 0 0 0 0 0 0 
0 0 0 0 0 0 0 0 
0 0 0 0 0 0 0 0 
0 0 0 0 0 0 0 0 
0 0 0 0 0 0 0 0 
0 0 0 0 0 0 0 0 
0 0 0 0 0 0 0 0 
0 0 0 0 0 0 0 0 
0 0 0 0 0 0 0 0 
0 0 0 0 0 0 0 0 
0 0 0 0 0 0 0 0 
0 0 0 0 0 0 0 0 
0 0 0 0 0 0 0 0 
0 0 0 0 0 0 0 0 
0 0 0 0 0 0 0 0 
0 0 0 0 0 0 0 0 
0 0 0 0 0 0 0 0 
0 0 0 0 0 0 0 0 
0 0 0 0 0 0 0 0 
0 0 0 0 0 0 0 0 
0 0 0 0 0 0 0 0 
0 0 0 0 0 0 0 0 
0 0 0 0 0 0 0 0 
0 0 0 0 0 0 0 0 
0 0 0 0 0 0 0 0 
0 0 0 0 0 0 0 0 
0 0 0 0 0 0 0 0 
0 0 0 0 0 0 0 0 
0 0 0 0 0 0 0 0 
0 0 0 0 0 0 0 0 
0 0 0 0 0 0 0 0 
0 0 0 0 0 0 0 0 
0 0 0 0 0 0 0 0 
0 0 0 0 0 0 0 0 
0 0 0 0 0 0 0 0 
0 0 0 0 0 0 0 0 
0 0 0 0 0 0 0 0 
0 0 0 0 0 0 0 0 
0 0 0 0 0 0 0 0 
0 0 0 0 0 0 0 0 
0 0 0 0 0 0 0 0 
0 0 0 0 0 0 0 0 
0 0 0 0 0 0 0 0 
0 0 0 0 0 0 0 0 
0 0 0 0 0 0 0 0 
0 0 0 0 0 0 0 0 
0 0 0 0 0 0 0 0 
0 0 0 0 0 0 0 0 
0 0 0 0 0 0 0 0 
0 0 0 0 0 0 0 0 
0 0 0 0 0 0 0 0 
0 0 0 0 0 0 0 0 
0 0 0 0 0 0 0 0 
0 0 0 0 0 0 0 0 
0 0 0 0 0 0 0 0 
0 0 0 0 0 0 0 0 
0 0 0 0 0 0 0 0 
0 0 0 0 0 0 0 0 
0 0 0 0 0 0 0 0 
0 0 0 0 0 0 0 0 
0 0 0 0 0 0 0 0 
0 0 0 0 0 0 0 0 
0 0 0 0 0 0 0 0 
0 0 0 0 0 0 0 0 
0 0 0 0 0 0 0 0 
0 0 0 0 0 0 0 0 
0 0 0 0 0 0 0 0 
0 0 0 0 0 0 0 0 
0 0 0 0 0 0 0 0 
0 0 0 0 0 0 0 0 
0 0 0 0 0 0 0 0 
0 0 0 0 0 0 0 0 
0 0 0 0 0 0 0 0 
0 0 0 0 0 0 0 0 
0 0 0 0 0 0 0 0 
0 0 0 0 0 0 0 0 
0 0 0 0 0 0 0 0 
0 0 0 0 0 0 0 0 
0 0 0 0 0 0 0 0 
0.0266688 0 -1.56013e-05 0 0 -0.0266688 0 0 
1.31389 -0.000137957 0.000168962 -0.000168962 -0.656946 0.804592 -0.804592 8.14633e-13 
1.33983 -0.00021951 0.000139601 -0.000140636 -0.669917 0.820473 -0.820482 938.936 
0.0166968 -0.000243111 0.000146543 0.000158063 0 0.0118064 0.0118064 29.4841 
0.00328512 -0.000174136 6.38112e-05 6.92927e-05 7.79289e-11 0.00232293 0.00232293 11.1864 
0.00752978 -0.000100885 2.71011e-05 3.8943e-05 0 0.00532436 0.00532436 29.4152 
0.010672 -0.000306609 0.000157816 1.13638e-05 0 0.010672 0 37.3511 
0.00682405 -0.000164204 0.000100913 -1.97974e-06 0 0.00682405 0 18.7657 
0.00704315 -5.52091e-05 1.06577e-05 0.000104153 0 0 0.00704315 4.92273 
0.00581401 -0.000188484 8.34287e-06 8.59768e-05 0 0 0.00581401 22.5027 
0.00496599 -0.000196515 0.000105397 9.58115e-05 0 0.00351148 0.00351148 12.5258 
0.00879628 -0.000185289 7.81859e-05 8.22878e-05 -1.28413e-10 0.00621991 0.00621991 26.4642 
0.00767294 -0.000109329 3.1766e-05 3.55337e-05 0 0.00542558 0.00542559 31.8418 
0.268627 -2.82055e-05 -3.45445e-05 3.45445e-05 -0.134314 -0.1645 0.1645 9.58392e-14 
1.30081 -0.000136584 -0.00016728 0.000167282 -0.650403 -0.796574 0.796582 4.31272e-13 
0.00345948 -9.61018e-05 -6.6367e-05 -7.38014e-05 0 -0.00244622 -0.00244622 5.78295 
0.012177 -0.000145891 -0.000118553 -0.000103597 6.4154e-10 -0.00861045 -0.00861045 20.5023 
0.00816545 -6.1503e-05 -3.68563e-05 -3.47632e-05 0 -0.00577384 -0.00577384 19.4399 
0.00822446 -6.31047e-05 -0.000121622 3.7388e-06 0 -0.00822446 0 7.22564 
0.00653146 -4.84164e-05 -9.65863e-05 3.06764e-06 0 -0.00653146 0 5.30563 
0.0119772 -0.000103621 9.32711e-06 -0.000177117 0 0 -0.0119772 12.6346 
0.00442202 0 0 -6.53922e-05 0 0 -0.00442202 0 
0.0130243 -2.57983e-05 -0.000120582 -0.000117025 0 -0.00920954 -0.00920954 3.89938 
0.00633736 -0.000246786 -0.000124383 -0.000132389 -4.16565e-11 -0.00448119 -0.00448119 15.4653 
0.00961981 0 -4.21879e-05 -4.21879e-05 0 -0.00680223 -0.00680223 0 
0.061752 -4.68384e-05 3.93446e-06 -3.61249e-05 0 0 -0.061752 148.616 
0.0853411 0 0 -4.99245e-05 0 0 -0.0853411 0 
0.073528 -4.72294e-05 -4.1911e-05 -2.75773e-06 0 -0.073528 0 163.178 
0.0726297 3.00478e-06 -4.13989e-05 -3.58303e-06 0 -0.0726297 0 4.81158 
0.0530082 -5.30324e-05 -9.58518e-06 3.10098e-05 0 0 0.0530082 135.482 
0.156851 1.47702e-05 -5.82176e-07 9.17578e-05 0 0 0.156851 11.1917 
0.021399 -5.39151e-05 1.21974e-05 1.10583e-06 0 0.021399 0 141.842 
0.12638 -0.000112314 7.20367e-05 -2.0845e-05 0 0.12638 0 289.37 
0 0 0 0 0 0 0 0 
0.0217543 0 1.23999e-05 0 0 0.0217543 0 0 
0.0084388 -3.55723e-05 -6.06022e-06 -4.81012e-06 0 0 -0.0084388 134.426 
0.0582214 -3.6933e-05 -3.57965e-06 -3.31862e-05 0 0 -0.0582214 108.837 
0 0 0 0 0 0 0 0 
0 0 0 0 0 0 0 0 
0.0260334 0 -2.90939e-12 1.4839e-05 0 -5.10419e-09 0.0260334 0 
0.0260334 0 -2.90939e-12 1.4839e-05 0 -5.10419e-09 0.0260334 0 
0.0141993 0 8.09359e-06 0 0 0.0141993 0 0 
0 0 0 0 0 0 0 0 
0.0132768 0 0 -7.56776e-06 0 0 -0.0132768 0 
0.017962 0 0 -1.02384e-05 0 0 -0.017962 0 
0 0 0 0 0 0 0 0 
0 0 0 0 0 0 0 0 
0 0 0 0 0 0 0 0 
0 0 0 0 0 0 0 0 
0.0112825 0 -6.43105e-06 0 0 -0.0112825 0 0 
0.0462759 -5.75221e-05 -2.63773e-05 -1.5611e-06 0 -0.0462759 0 195.542 
0.0186779 0 0 1.06464e-05 0 0 0.0186779 1.76543e-14 
0 0 0 0 0 0 0 0 
0.0413808 0 2.35871e-05 0 0 0.0413808 0 0 
0 0 0 0 0 0 0 0 
0.0192725 0 0 -1.09853e-05 0 0 -0.0192725 0 
0.0191699 0 0 -1.09268e-05 0 0 -0.0191699 0 
0.0166745 0 9.50448e-06 0 0 0.0166745 0 0 
0 0 0 0 0 0 0 0 
0.0424218 -5.94216e-05 -1.5325e-06 -2.41805e-05 0 0 -0.0424218 149.709 
0.0109639 0 0 -6.24941e-06 0 0 -0.0109639 0 
0.0174989 0 -9.97439e-06 0 0 -0.0174989 0 0 
0 0 0 0 0 0 0 0 
0 0 0 0 0 0 0 0 
0.0297739 0 0 1.69711e-05 0 0 0.0297739 2.20679e-15 
0 0 0 0 0 0 0 0 
0 0 0 0 0 0 0 0 
0.00995391 -5.22808e-05 9.14286e-07 -5.67373e-06 0 0 -0.00995391 145.961 
0.0283334 0 0 -1.615e-05 0 0 -0.0283334 0 
0.00760463 0 -4.33464e-06 0 0 -0.00760463 0 0 
0 0 0 0 0 0 0 0 
0.067382 0 0 3.84077e-05 0 0 0.067382 0 
0 0 0 0 0 0 0 0 
0.0413042 4.35975e-06 4.20429e-07 -2.35434e-05 0 0 -0.0413042 0.363167 
0 0 0 0 0 0 0 0 
0 0 0 0 0 0 0 0 
0 0 0 0 0 0 0 0 
0.0151301 -5.17724e-05 -2.654e-06 8.62416e-06 0 0 0.0151301 146.797 
0.0197162 -4.15806e-05 3.14467e-06 1.12382e-05 0 0 0.0197162 119.899 
0.0119498 0 6.81138e-06 0 0 0.0119498 0 0 
0 0 0 0 0 0 0 0 
0.0462188 0 2.63447e-05 0 0 0.0462188 0 5.2963e-14 
0.0196535 0 1.12025e-05 0 0 0.0196535 0 0 
0 0 0 0 0 0 0 0 
0 0 0 0 0 0 0 0 
0.0438052 0 -2.4969e-05 0 0 -0.0438052 0 0 
0 0 0 0 0 0 0 0 
0 0 0 0 0 0 0 0 
0.0101555 0 0 5.78862e-06 0 0 0.0101555 0 
0.0230389 0 0 -1.31322e-05 0 0 -0.0230389 3.31019e-15 
0.0230389 0 0 -1.31322e-05 0 0 -0.0230389 2.75849e-15 
0.0290839 0 -1.65778e-05 0 0 -0.0290839 0 0 
0.0100393 0 -5.72239e-06 0 0 -0.0100393 0 0 
0.032073 0 0 1.82816e-05 0 0 0.032073 0 
0.0293846 -5.16459e-05 -1.44338e-06 1.67492e-05 0 0 0.0293846 149.169 
0.035941 -5.76449e-05 2.04864e-05 1.29079e-06 0 0.035941 7.0467e-09 144.543 
0 0 0 0 0 0 0 0 
0.0129408 -4.05592e-05 -6.88777e-06 -7.37628e-06 0 0 -0.0129408 134.142 
0.0169316 0 0 -9.65099e-06 0 0 -0.0169316 0 
0 0 0 0 0 0 0 0 
0.000579889 0 -3.30537e-07 -6.48096e-14 0 -0.000579889 -1.13701e-10 0 
0.0223463 0 0 1.27374e-05 0 0 0.0223463 0 
0 0 0 0 0 0 0 0 
0.00893932 -9.5533e-06 5.09541e-06 1.00039e-05 0 0.00893932 0 4.19726 
0 0 0 0 0 0 0 0 
0 0 0 0 0 0 0 0 
0.00843969 0 0 4.93722e-06 0 0 0.00843969 0 
0.0144505 0 8.23678e-06 0 0 0.0144505 0 1.37925e-15 
0 0 0 0 0 0 0 0 
0 0 0 0 0 0 0 0 
0 0 0 0 0 0 0 0 
0.0229801 0 -1.30987e-05 0 0 -0.0229801 0 0 
0.0183541 -3.71781e-05 -1.04618e-05 -1.75627e-06 0 -0.0183541 0 108.91 
0.0268262 0 0 1.56933e-05 0 0 0.0268262 0 
0 0 0 0 0 0 0 0 
0 0 0 0 0 0 0 0 
0 0 0 0 0 0 0 0 
0.00390245 0 0 -2.28294e-06 0 0 -0.00390245 0 
0 0 0 0 0 0 0 0 
0.0267613 0 -1.52539e-05 0 0 -0.0267613 0 0 
0 0 0 0 0 0 0 0 
0 0 0 0 0 0 0 0 
0 0 0 0 0 0 0 0 
0 0 0 0 0 0 0 0 
0.0166397 0 -9.48464e-06 0 0 -0.0166397 0 0 
0.0209956 0 0 1.19675e-05 0 0 0.0209956 0 
0 0 0 0 0 0 0 0 
0 0 0 0 0 0 0 0 
0 0 0 0 0 0 0 0 
0 0 0 0 0 0 0 0 
0 0 0 0 0 0 0 0 
0.0322581 0 1.8871e-05 0 0 0.0322581 0 0 
0.00748166 0 4.37677e-06 0 0 0.00748166 0 0 
0.00933573 0 0 -5.4614e-06 0 0 -0.00933573 0 
0 0 0 0 0 0 0 0 
0.0340681 0 0 -9.96492e-06 0 0 -0.0340681 0 
0.00803657 -3.47638e-05 -4.70139e-06 2.64845e-06 0 -0.00803657 0 109.181 
0 0 0 0 0 0 0 0 
0.0262656 0 -7.68268e-06 0 0 -0.0262656 0 0 
0.0204045 -5.25061e-05 7.06846e-06 1.19366e-05 0 0 0.0204045 142.041 
0.043713 0 0 2.55721e-05 0 0 0.043713 0 
0.0438349 0 2.49859e-05 0 0 0.0438349 0 0 
0.0102787 0 5.85888e-06 0 0 0.0102787 0 0 
0.0438446 0 0 -2.56491e-05 0 0 -0.0438446 0 
0.054673 0 0 -3.19837e-05 0 0 -0.054673 0 
0.0190242 0 -1.08438e-05 0 0 -0.0190242 0 0 
0.0383141 0 -2.1839e-05 0 0 -0.0383141 0 0 
0.0804561 -1.0135e-05 6.82196e-06 -4.586e-05 0 0 -0.0804561 30.1058 
0 0 0 0 0 0 0 0 
0.0668521 0 -3.91085e-05 0 0 -0.0668521 0 0 
0.0317581 0 -1.85785e-05 0 0 -0.0317581 0 0 
0 0 0 0 0 0 0 0 
0.00726977 0 0 4.14377e-06 0 0 0.00726977 0 
0.0186921 -5.3158e-05 1.09349e-05 9.95007e-07 0 0.0186921 0 153.322 
0.047442 0 2.77536e-05 0 0 0.047442 0 0 
0 0 0 0 0 0 0 0 
0.0185322 0 1.05633e-05 0 0 0.0185322 0 1.76543e-14 
0 0 0 0 0 0 0 0 
0.00690952 0 0 -3.93843e-06 0 0 -0.00690952 0 
0.0185322 0 -1.05633e-05 0 0 -0.0185322 0 0 
0 0 0 0 0 0 0 0 
0 0 0 0 0 0 0 0 
0.0109086 0 0 6.21791e-06 0 0 0.0109086 0 
0 0 0 0 0 0 0 0 
0.00988988 -4.01712e-05 5.63723e-06 4.69724e-06 0 0.00988988 0 119.145 
0 0 0 0 0 0 0 0 
0.0170513 0 0 -9.71924e-06 0 0 -0.0170513 0 
0.0133695 0 -7.62062e-06 0 0 -0.0133695 0 1.6551e-15 
0 0 0 0 0 0 0 0 
0.0170513 0 0 9.71924e-06 0 0 0.0170513 0 
0.0110543 -5.04684e-05 -1.7317e-06 6.30098e-06 0 0 0.0110543 141.522 
0.0213998 0 0 -1.21979e-05 0 0 -0.0213998 5.51698e-15 
0.0163994 0 0 -9.34768e-06 0 0 -0.0163994 0 
0.0327261 0 -1.86539e-05 0 0 -0.0327261 0 0 
0.0174761 0 -9.96137e-06 0 0 -0.0174761 0 4.41359e-15 
0 0 0 0 0 0 0 0 
0.0184922 -3.40833e-05 -7.18495e-06 1.05406e-05 0 0 0.0184922 116.502 
0.0252104 0 1.43699e-05 0 0 0.0252104 0 4.41359e-15 
0 0 0 0 0 0 0 0 
0.00241433 0 1.37617e-06 0 0 0.00241433 0 0 
0 0 0 0 0 0 0 0 
0 0 0 0 0 0 0 0 
0.0290376 -4.5514e-05 1.96175e-07 -1.65514e-05 0 0 -0.0290376 137.019 
0 0 0 0 0 0 0 0 
0 0 0 0 0 0 0 0 
0.00382922 0 0 2.18265e-06 0 0 0.00382922 0 
0.0482231 -5.38217e-06 3.05794e-06 2.74872e-05 0 0 0.0482231 1.44125 
0.060178 0 0 -3.43015e-05 0 0 -0.060178 1.54476e-14 
0.00831729 0 0 -4.74086e-06 0 0 -0.00831729 0 
0.0140031 -6.25959e-05 -7.98177e-06 -5.74303e-06 0 -0.0140031 0 170.325 
0.0515313 0 -2.93728e-05 0 0 -0.0515313 0 0 
0.0179764 1.62516e-05 4.98518e-06 1.02466e-05 0 0 0.0179764 -4.95738 
0.0180878 0 0 1.03101e-05 0 0 0.0180878 0 
0.0135934 0 7.74824e-06 0 0 0.0135934 0 0 
0.0356635 0 2.03282e-05 0 0 0.0356635 0 0 
0.289479 0 0.000165003 0 0 0.289479 0 0 
0.0145218 0 8.27744e-06 0 0 0.0145218 0 0 
0.0638562 0 0 -3.6398e-05 0 0 -0.0638562 0 
0 0 0 0 0 0 0 0 
0.274173 0 -0.000156279 0 0 -0.274173 0 0 
0.00553749 0 -3.15637e-06 0 0 -0.00553749 0 0 
0.0187872 -5.40003e-05 1.41841e-06 1.07087e-05 0 0 0.0187872 154.451 
0.0561147 0 0 3.19854e-05 0 0 0.0561147 0 
0.0174131 0 0 -1.01867e-05 0 0 -0.0174131 0 
0 0 0 0 0 0 0 0 
0 0 0 0 0 0 0 0 
0.0156324 0 -8.91048e-06 0 0 -0.0156324 0 0 
0.0033469 0 0 1.95793e-06 0 0 0.0033469 0 
0 0 0 0 0 0 0 0 
0 0 0 0 0 0 0 0 
0.0156324 0 8.91048e-06 0 0 0.0156324 0 0 
0.027227 0 -1.55194e-05 0 0 -0.027227 0 0 
0 0 0 0 0 0 0 0 
0.0382878 -5.43202e-05 7.75968e-06 2.1824e-05 0 0 0.0382878 166.849 
0.0260482 0 0 1.48475e-05 0 0 0.0260482 0 
0.00986152 0 5.62106e-06 1.10214e-12 0 0.00986152 1.93358e-09 0 
0.0302744 0 1.72564e-05 3.38353e-12 0 0.0302744 5.93602e-09 -1.1034e-15 
0.0260482 0 0 -1.48475e-05 0 0 -0.0260482 0 
0.0307885 0 0 -1.75494e-05 0 0 -0.0307885 2.75849e-15 
0.155971 -4.72603e-05 -8.89036e-05 -6.0308e-06 0 -0.155971 0 151.06 
0 0 0 0 0 0 0 0 
0.0389703 0 0 2.22131e-05 0 0 0.0389703 0 
0.0136537 0 0 7.78263e-06 0 0 0.0136537 0 
0.129351 0 7.37301e-05 0 0 0.129351 0 0 
0.0226767 -1.62389e-06 1.29257e-05 -1.11065e-05 0 0.0226767 0 3.50971 
0.0680149 0 0 -3.87685e-05 0 0 -0.0680149 0 
0 0 0 0 0 0 0 0 
0.0766441 -3.23034e-05 -8.12693e-06 4.36871e-05 0 0 0.0766441 158.599 
0 0 0 0 0 0 0 0 
0.0138452 0 7.89174e-06 0 0 0.0138452 0 0 
0 0 0 0 0 0 0 0 
0.0136746 -5.85269e-05 1.19385e-06 -7.79451e-06 0 0 -0.0136746 202.268 
0 0 0 0 0 0 0 0 
0.0138669 0 -7.90416e-06 0 0 -0.0138669 0 1.37925e-15 
0 0 0 0 0 0 0 0 
0.0245799 0 0 -1.43793e-05 0 0 -0.0245799 0 
0.0149918 -3.29227e-05 -3.1381e-06 -8.77019e-06 0 0 -0.0149918 101.973 
0 0 0 0 0 0 0 0 
0.0100874 -4.6734e-05 -5.7498e-06 3.69403e-06 0 -0.0100874 0 152.755 
0.0215828 0 0 1.2626e-05 0 0 0.0215828 0 
0.0104827 2.8969e-06 -3.32791e-06 6.13237e-06 0 0 0.0104827 -1.24284 
0.00869505 0 4.95618e-06 0 0 0.00869505 0 4.13774e-16 
0 0 0 0 0 0 0 0 
0.0409728 0 0 -2.39691e-05 0 0 -0.0409728 0 
0.0383943 -6.22235e-05 -2.53705e-06 -2.24606e-05 0 0 -0.0383943 159.81 
0 0 0 0 0 0 0 0 
0.013676 0 -7.79531e-06 0 0 -0.013676 0 0 
0.0402182 0 0 2.35276e-05 0 0 0.0402182 0 
0 0 0 0 0 0 0 0 
0.0213608 0 1.21756e-05 0 0 0.0213608 0 0 
0 0 0 0 0 0 0 0 
0.0256034 0 1.4978e-05 0 0 0.0256034 0 0 
0.0257673 0 1.50739e-05 0 0 0.0257673 0 0 
0.0648339 0 0 -3.69553e-05 0 0 -0.0648339 0 
0.021434 1.39354e-06 2.79849e-06 -1.22174e-05 0 0 -0.021434 -2.66242 
0 0 0 0 0 0 0 0 
0.033254 -5.09142e-05 -1.94536e-05 -7.30189e-06 0 -0.033254 0 163.28 
0.0354937 0 0 2.02314e-05 0 0 0.0354937 6.62038e-15 
0.0212111 0 0 1.20903e-05 0 0 0.0212111 0 
0.0206896 8.96194e-06 1.17931e-05 -1.9011e-06 0 0.0206896 0 0.896933 
0.0110915 -5.96516e-05 6.32213e-06 9.33364e-06 0 0.0110915 0 178.327 
0.0405152 -5.98936e-05 5.41191e-07 -2.30937e-05 0 0 -0.0405152 192.232 
0.0161971 0 0 -9.23235e-06 0 0 -0.0161971 0 
0.00739115 0 -4.21296e-06 0 0 -0.00739115 0 0 
0.0210945 0 -1.20239e-05 0 0 -0.0210945 0 1.72406e-15 
0 0 0 0 0 0 0 0 
0.0161971 0 0 9.23235e-06 0 0 0.0161971 0 
0.00796031 0 -4.65678e-06 0 0 -0.00796031 0 0 
0 0 0 0 0 0 0 0 
0.00585032 0 -1.71122e-06 0 0 -0.00585032 0 0 
0 0 0 0 0 0 0 0 
0.00840837 0 0 2.45945e-06 0 0 0.00840837 0 
0 0 0 0 0 0 0 0 
0 0 0 0 0 0 0 0 
0 0 0 0 0 0 0 0 
0 0 0 0 0 0 0 0 
0 0 0 0 0 0 0 0 
0.0141971 0 0 -8.30531e-06 0 0 -0.0141971 0 
0.0184433 0 0 -1.07893e-05 0 0 -0.0184433 0 
0.0791417 -0.000206617 -4.51108e-05 8.43058e-06 0 -0.0791417 0 651.872 
0 0 0 0 0 0 0 0 
0.0193348 0 0 1.13109e-05 0 0 0.0193348 0 
0 0 0 0 0 0 0 0 
0.0433034 0 2.46829e-05 0 0 0.0433034 0 0 
0.0301789 0 1.7202e-05 0 0 0.0301789 0 0 
0.19795 -1.0613e-05 4.86769e-06 0.000115801 0 0 0.19795 33.1498 
0 0 0 0 0 0 0 0 
0.112771 0 6.42794e-05 0 0 0.112771 0 5.62732e-14 
0.0147657 -3.62044e-05 8.41648e-06 4.71484e-06 0 0.0147657 0 79.5648 
0.126183 -1.66314e-06 2.32584e-06 -7.38171e-05 0 0 -0.126183 4.92106 
0.0161191 0 0 -9.42969e-06 0 0 -0.0161191 0 
0.0310466 0 -1.76966e-05 0 0 -0.0310466 0 0 
0.206981 -2.3931e-05 -0.000117979 2.35534e-06 0 -0.206981 0 68.7449 
0.0143276 0 8.38166e-06 0 0 0.0143276 0 0 
0.0058333 0 3.41248e-06 0 0 0.0058333 0 0 
0.0102629 0 0 -5.84986e-06 0 0 -0.0102629 0 
0 0 0 0 0 0 0 0 
0.0289878 0 -1.69579e-05 0 0 -0.0289878 0 0 
0 0 0 0 0 0 0 0 
0 0 0 0 0 0 0 0 
0 0 0 0 0 0 0 0 
0 0 0 0 0 0 0 0 
0 0 0 0 0 0 0 0 
0.013255 0 0 7.55532e-06 0 0 0.013255 0 
0.0139587 0 0 7.95647e-06 0 0 0.0139587 0 
0.00878518 0 5.13933e-06 0 0 0.00878518 0 0 
0.0282963 0 1.65533e-05 0 0 0.0282963 0 0 
0.0113265 0 0 -6.45612e-06 0 0 -0.0113265 0 
0 0 0 0 0 0 0 0 
0 0 0 0 0 0 0 0 
0.00777717 0 0 -4.43299e-06 0 0 -0.00777717 0 
0.0813167 -4.04068e-05 -4.75702e-05 4.70207e-06 0 -0.0813167 0 125.886 
0.108509 0 -6.34779e-05 0 0 -0.108509 0 0 
0.00487224 -5.16328e-05 -5.74208e-06 2.77717e-06 0 0 0.00487224 151.854 
0 0 0 0 0 0 0 0 
0.0102186 0 5.9779e-06 0 0 0.0102186 0 0 
0.108509 0 6.34779e-05 0 0 0.108509 0 0 
0.0428885 0 2.50898e-05 0 0 0.0428885 0 0 
0.00530902 -3.2636e-05 3.10577e-06 1.58672e-07 0 0.00530902 0 102.829 
0 0 0 0 0 0 0 0 
0.0596464 1.91737e-06 1.50768e-06 -3.39984e-05 0 0 -0.0596464 -6.77965 
0.0292188 3.4699e-06 -1.7093e-05 -3.09692e-06 0 -0.0292188 0 -0.15774 
0.0256762 0 -1.50206e-05 0 0 -0.0256762 0 0 
0.0938666 -7.3152e-05 -3.37726e-06 5.3504e-05 0 0 0.0938666 187.739 
0 0 0 0 0 0 0 0 
0.0189833 0 0 -1.11052e-05 0 0 -0.0189833 0 
0 0 0 0 0 0 0 0 
0 0 0 0 0 0 0 0 
0.0190712 0 1.08706e-05 0 0 0.0190712 0 0 
0.0506899 -5.76337e-05 2.88933e-05 -3.05648e-06 0 0.0506899 0 163.218 
0 0 0 0 0 0 0 0 
0.032812 0 0 -1.9195e-05 0 0 -0.032812 0 
0 0 0 0 0 0 0 0 
0 0 0 0 0 0 0 0 
0.0189568 0 0 1.10897e-05 0 0 0.0189568 0 