ITEM: TIMESTEP
130
ITEM: NUMBER OF SURFS
6916
ITEM: BOX BOUNDS oo rr rr
-20 20
-20 20
-20 20
ITEM: SURFS f_save[1] f_save[2] f_save[3] f_save[4] f_save[5] f_save[6] f_save[7] f_save[8] 
1.54547e-18 -1.15959e-19 0 0 -1.54547e-18 0 0 0 
8.01897e-20 0 0 -2.40652e-19 0 0 -8.01897e-20 0 
0 0 0 0 0 0 0 0 
1.41117e-18 -3.43972e-20 0 0 -1.41117e-18 0 0 1.30701e-30 
1.32578e-18 -1.65723e-21 0 0 -1.32578e-18 0 0 0 
1.12645e-18 -1.40807e-21 0 0 -1.12645e-18 0 0 0 
1.31011e-18 -1.63764e-21 0 0 -1.31011e-18 0 0 0 
1.39011e-18 -3.38838e-20 0 0 -1.39011e-18 0 0 1.27807e-30 
1.32267e-18 -3.14133e-20 0 0 -1.32267e-18 0 0 0 
1.40198e-18 -3.32969e-20 0 0 -1.40198e-18 0 0 0 
1.43024e-18 -3.39683e-20 0 0 -1.43024e-18 0 0 0 
1.42783e-18 -3.3911e-20 0 0 -1.42783e-18 0 0 0 
1.46278e-18 -3.56553e-20 0 0 -1.46278e-18 0 0 0 
1.42699e-18 -3.3891e-20 0 0 -1.42699e-18 0 0 0 
1.39112e-18 -3.3039e-20 0 0 -1.39112e-18 0 0 0 
1.35144e-18 -3.29415e-20 0 0 -1.35144e-18 0 0 0 
1.38055e-18 -3.36509e-20 0 0 -1.38055e-18 0 0 1.27267e-30 
1.4129e-18 -3.35564e-20 0 0 -1.4129e-18 0 0 1.3113e-30 
1.39233e-18 -3.30679e-20 0 0 -1.39233e-18 0 0 0 
1.3606e-18 -3.31646e-20 0 0 -1.3606e-18 0 0 1.2601e-30 
1.3796e-18 -3.27655e-20 0 0 -1.3796e-18 0 0 0 
1.39408e-18 -3.31094e-20 0 0 -1.39408e-18 0 0 0 
1.38192e-18 -3.36844e-20 0 0 -1.38192e-18 0 0 0 
1.40267e-18 -3.33136e-20 0 0 -1.40267e-18 0 0 0 
1.45776e-18 -3.46219e-20 0 0 -1.45776e-18 0 0 0 
1.40752e-18 -3.34286e-20 0 0 -1.40752e-18 0 0 0 
1.40929e-18 -1.76162e-21 0 0 -1.40929e-18 0 0 0 
1.3861e-18 -3.292e-20 0 0 -1.3861e-18 0 0 0 
1.38375e-18 -3.28642e-20 0 0 -1.38375e-18 0 0 0 
1.41891e-18 -1.77364e-21 0 0 -1.41891e-18 0 0 0 
1.28814e-18 -3.05933e-20 0 0 -1.28814e-18 0 0 0 
1.39069e-18 -3.30289e-20 0 0 -1.39069e-18 0 0 0 
1.79658e-18 -2.24573e-21 0 0 -1.79658e-18 0 0 0 
1.36601e-18 -3.32964e-20 0 0 -1.36601e-18 0 0 1.25398e-30 
1.40482e-18 -3.33646e-20 0 0 -1.40482e-18 0 0 0 
1.55255e-18 -1.9407e-21 0 0 -1.55255e-18 0 0 0 
1.38165e-18 -3.36778e-20 0 0 -1.38165e-18 0 0 1.27093e-30 
1.37215e-18 -3.25888e-20 0 0 -1.37215e-18 0 0 0 
1.48688e-18 -1.85861e-21 0 0 -1.48688e-18 0 0 0 
1.32154e-18 -3.13867e-20 0 0 -1.32154e-18 0 0 0 
1.34063e-18 -3.2678e-20 0 0 -1.34063e-18 0 0 0 
1.62955e-18 -2.03695e-21 0 0 -1.62955e-18 0 0 0 
1.32747e-18 -3.15275e-20 0 0 -1.32747e-18 0 0 0 
1.41858e-18 -3.4578e-20 0 0 -1.41858e-18 0 0 0 
1.63699e-18 -2.04624e-21 0 0 -1.63699e-18 0 0 0 
1.42554e-18 -3.38566e-20 0 0 -1.42554e-18 0 0 0 
1.37744e-18 -3.27142e-20 0 0 -1.37744e-18 0 0 0 
1.65626e-18 -2.07034e-21 0 0 -1.65626e-18 0 0 0 
1.33336e-18 -1.66671e-21 0 0 -1.33336e-18 0 0 0 
1.36192e-18 -1.7024e-21 0 0 -1.36192e-18 0 0 0 
1.40426e-18 -3.33512e-20 0 0 -1.40426e-18 0 0 1.29466e-30 
1.39435e-18 -3.3116e-20 0 0 -1.39435e-18 0 0 0 
1.35827e-18 -3.22589e-20 0 0 -1.35827e-18 0 0 1.24822e-30 
1.61672e-18 -2.0209e-21 0 0 -1.61672e-18 0 0 0 
1.3981e-18 -3.32048e-20 0 0 -1.3981e-18 0 0 0 
1.39274e-18 -3.30777e-20 0 0 -1.39274e-18 0 0 0 
1.49698e-18 -3.55532e-20 0 0 -1.49698e-18 0 0 0 
1.5954e-18 -1.99425e-21 0 0 -1.5954e-18 0 0 0 
1.46356e-18 -3.47595e-20 0 0 -1.46356e-18 0 0 0 
1.43256e-18 -3.40233e-20 0 0 -1.43256e-18 0 0 0 
1.33647e-18 -3.17412e-20 0 0 -1.33647e-18 0 0 0 
1.77523e-18 -2.21906e-21 0 0 -1.77523e-18 0 0 0 
1.32103e-18 -3.13746e-20 0 0 -1.32103e-18 0 0 0 
1.27465e-18 -3.10696e-20 0 0 -1.27465e-18 0 0 1.18473e-30 
1.38095e-18 -1.7262e-21 0 0 -1.38095e-18 0 0 0 
1.29273e-18 -3.07023e-20 0 0 -1.29273e-18 0 0 0 
1.36376e-18 -3.23892e-20 0 0 -1.36376e-18 0 0 0 
1.62411e-18 -2.03015e-21 0 0 -1.62411e-18 0 0 0 
1.3114e-18 -3.11459e-20 0 0 -1.3114e-18 0 0 0 
1.39111e-18 -3.30388e-20 0 0 -1.39111e-18 0 0 0 
1.62048e-18 -2.0256e-21 0 0 -1.62048e-18 0 0 0 
1.42976e-18 -3.39569e-20 0 0 -1.42976e-18 0 0 0 
1.29849e-18 -3.08393e-20 0 0 -1.29849e-18 0 0 0 
1.45257e-18 -1.81571e-21 0 0 -1.45257e-18 0 0 0 
1.61474e-18 -2.01844e-21 0 0 -1.61474e-18 0 0 0 
1.42409e-18 -3.38221e-20 0 0 -1.42409e-18 0 0 0 
1.43486e-18 -3.40778e-20 0 0 -1.43486e-18 0 0 0 
1.45735e-18 -1.8217e-21 0 0 -1.45735e-18 0 0 0 
1.37579e-18 -3.26751e-20 0 0 -1.37579e-18 0 0 0 
1.34622e-18 -3.19728e-20 0 0 -1.34622e-18 0 0 0 
1.44618e-18 -3.43468e-20 0 0 -1.44618e-18 0 0 0 
1.38384e-18 -3.28662e-20 0 0 -1.38384e-18 0 0 0 
1.43015e-18 -3.39662e-20 0 0 -1.43015e-18 0 0 0 
1.41329e-18 -3.4449e-20 0 0 -1.41329e-18 0 0 0 
1.39176e-18 -3.47942e-20 0 0 -1.39176e-18 0 0 0 
1.35887e-18 -3.39717e-20 0 0 -1.35887e-18 0 0 0 
1.30013e-18 -3.25032e-20 0 0 -1.30013e-18 0 0 0 
1.32171e-18 -3.3043e-20 0 0 -1.32171e-18 0 0 0 
1.3752e-18 -1.18267e-18 0 0 -1.3752e-18 0 0 1.26853e-30 
1.38497e-18 -6.57861e-19 0 0 -1.38497e-18 0 0 1.27623e-30 
1.38287e-18 -6.56864e-19 0 0 -1.38287e-18 0 0 0 
1.36871e-18 -6.50139e-19 0 0 -1.36871e-18 0 0 0 
1.36425e-18 -6.65073e-19 0 0 -1.36425e-18 0 0 0 
1.39164e-18 -1.19681e-18 0 0 -1.39164e-18 0 0 1.28368e-30 
1.38963e-18 -6.60076e-19 0 0 -1.38963e-18 0 0 0 
1.36643e-18 -6.49053e-19 0 0 -1.36643e-18 0 0 0 
1.38054e-18 -6.55758e-19 0 0 -1.38054e-18 0 0 0 
1.37483e-18 -6.70232e-19 0 0 -1.37483e-18 0 0 0 
1.40405e-18 -3.51013e-20 0 0 -1.40405e-18 0 0 1.29248e-30 
1.28368e-18 -3.2092e-20 0 0 -1.28368e-18 0 0 0 
1.48694e-18 -3.71736e-20 0 0 -1.48694e-18 0 0 1.36474e-30 
3.01074e-21 0 0 -1.76128e-20 0 0 -3.01074e-21 0 
0 0 0 0 0 0 0 0 
8.29879e-21 1.97096e-22 0 0 8.29879e-21 0 0 0 
0 0 0 0 0 0 0 0 
3.83159e-21 9.10001e-23 0 0 3.83159e-21 0 0 0 
5.78528e-21 1.374e-22 0 0 5.78528e-21 0 0 0 
5.63333e-21 1.33792e-22 0 0 5.63333e-21 0 0 0 
1.43685e-20 3.41253e-22 0 0 1.43685e-20 0 0 0 
3.91309e-21 9.29357e-23 0 0 3.91309e-21 0 0 0 
6.92045e-21 1.64361e-22 0 0 6.92045e-21 0 0 0 
2.19415e-20 2.67412e-22 0 0 2.19415e-20 0 0 0 
4.9926e-21 1.18575e-22 0 0 4.9926e-21 0 0 4.36647e-33 
6.14663e-21 1.45983e-22 0 0 6.14663e-21 0 0 0 
4.94373e-21 1.17413e-22 0 0 4.94373e-21 0 0 0 
7.9117e-21 1.87903e-22 0 0 7.9117e-21 0 0 0 
4.68744e-21 1.11327e-22 0 0 4.68744e-21 0 0 0 
6.31696e-21 1.50028e-22 0 0 6.31696e-21 0 0 0 
9.23671e-21 2.19372e-22 0 0 9.23671e-21 0 0 0 
3.09714e-20 3.87143e-23 0 0 3.09714e-20 0 0 0 
8.6238e-21 2.04816e-22 0 0 8.6238e-21 0 0 0 
2.26507e-21 5.37953e-23 0 0 2.26507e-21 0 0 0 
0 0 0 0 0 0 0 0 
4.957e-21 1.17729e-22 0 0 4.957e-21 0 0 0 
5.55978e-21 1.32045e-22 0 0 5.55978e-21 0 0 0 
0 0 0 0 0 0 0 0 
5.63721e-22 1.33884e-23 0 0 5.63721e-22 0 0 0 
4.93596e-21 1.17229e-22 0 0 4.93596e-21 0 0 0 
0 0 0 0 0 0 0 0 
0 0 0 0 0 0 0 0 
3.40809e-21 8.0942e-23 0 0 3.40809e-21 0 0 0 
1.04315e-21 2.47747e-23 0 0 1.04315e-21 0 0 0 
6.59414e-21 1.56611e-22 0 0 6.59414e-21 0 0 0 
2.9201e-21 6.93523e-23 0 0 2.9201e-21 0 0 0 
0 0 0 0 0 0 0 0 
2.07348e-21 4.92451e-23 0 0 2.07348e-21 0 0 0 
3.84839e-21 9.13991e-23 0 0 3.84839e-21 0 0 0 
0 0 0 0 0 0 0 0 
0 0 0 0 0 0 0 0 
1.66623e-21 3.95729e-23 0 0 1.66623e-21 0 0 0 
2.41107e-21 5.72629e-23 0 0 2.41107e-21 0 0 0 
8.21044e-21 1.94998e-22 0 0 8.21044e-21 0 0 0 
0 0 0 0 0 0 0 0 
6.58718e-21 1.56445e-22 0 0 6.58718e-21 0 0 0 
3.9589e-21 9.4024e-23 0 0 3.9589e-21 0 0 0 
0 0 0 0 0 0 0 0 
8.8816e-21 2.10938e-22 0 0 8.8816e-21 0 0 0 
1.22208e-20 2.90243e-22 0 0 1.22208e-20 0 0 0 
5.52088e-21 1.31121e-22 0 0 5.52088e-21 0 0 0 
0 0 0 0 0 0 0 0 
1.33012e-21 3.24217e-23 0 0 1.33012e-21 0 0 0 
0 0 0 0 0 0 0 0 
8.67328e-21 2.11411e-22 0 0 8.67328e-21 0 0 8.28113e-33 
1.71872e-20 4.08197e-22 0 0 1.71872e-20 0 0 0 
9.7706e-21 2.38158e-22 0 0 9.7706e-21 0 0 0 
8.25047e-21 2.01105e-22 0 0 8.25047e-21 0 0 7.90126e-33 
9.77439e-21 2.32143e-22 0 0 9.77439e-21 0 0 0 
0 0 0 0 0 0 0 0 
1.62799e-21 3.96825e-23 0 0 1.62799e-21 0 0 0 
0 0 0 0 0 0 0 0 
0 0 0 0 0 0 0 0 
0 0 0 0 0 0 0 0 
0 0 0 0 0 0 0 0 
0 0 0 0 0 0 0 0 
0 0 0 0 0 0 0 0 
1.45613e-21 3.54932e-23 0 0 1.45613e-21 0 0 0 
1.67854e-21 3.98654e-23 0 0 1.67854e-21 0 0 0 
0 0 0 0 0 0 0 0 
8.2236e-21 2.0045e-22 0 0 8.2236e-21 0 0 0 
8.06274e-21 1.91491e-22 0 0 8.06274e-21 0 0 0 
3.05422e-20 3.81779e-23 0 0 3.05422e-20 0 0 0 
6.92604e-21 1.68822e-22 0 0 6.92604e-21 0 0 0 
5.87795e-22 1.39602e-23 0 0 5.87795e-22 0 0 6.23781e-34 
0 0 0 0 0 0 0 0 
1.79608e-21 4.2657e-23 0 0 1.79608e-21 0 0 1.55945e-33 
6.82043e-21 1.61986e-22 0 0 6.82043e-21 0 0 0 
1.72922e-20 4.10691e-22 0 0 1.72922e-20 0 0 0 
3.73032e-21 8.85954e-23 0 0 3.73032e-21 0 0 0 
1.22223e-21 2.90281e-23 0 0 1.22223e-21 0 0 0 
5.10524e-21 1.2125e-22 0 0 5.10524e-21 0 0 4.36647e-33 
9.50378e-21 2.31654e-22 0 0 9.50378e-21 0 0 8.3571e-33 
5.57642e-21 1.35926e-22 0 0 5.57642e-21 0 0 0 
1.33833e-19 8.36458e-23 0 0 1.33833e-19 0 0 0 
1.32066e-20 1.60956e-22 0 0 1.32066e-20 0 0 0 
3.04539e-19 -3.19764e-19 -3.91629e-19 -3.91629e-19 -1.5227e-19 -1.86492e-19 -1.86492e-19 -1.01931e-31 
2.56386e-21 0 0 -3.79141e-19 0 0 -2.56386e-21 0 
1.68689e-21 0 3.41741e-19 -3.41741e-19 0 1.19281e-21 -1.19281e-21 -8.41237e-35 
3.07298e-19 -3.22661e-19 3.95177e-19 3.95177e-19 -1.53649e-19 1.88181e-19 1.88181e-19 -1.03085e-31 
2.57727e-21 0 0 3.81123e-19 0 0 2.57727e-21 0 
2.50848e-21 0 -2.28816e-19 2.28816e-19 0 -1.77376e-21 1.77376e-21 1.56719e-34 
2.81843e-21 0 -1.64878e-20 0 0 -2.81843e-21 0 0 
2.84131e-21 0 1.66216e-20 0 0 2.84131e-21 0 0 
2.68376e-21 0 0 -1.52974e-20 0 0 -2.68376e-21 0 
2.75121e-21 0 0 1.56819e-20 0 0 2.75121e-21 0 
2.75519e-21 0 0 -1.57046e-20 0 0 -2.75519e-21 0 
2.70011e-21 0 0 1.53906e-20 0 0 2.70011e-21 0 
2.75394e-21 0 0 1.56974e-20 0 0 2.75394e-21 0 
2.69093e-21 0 0 -1.53383e-20 0 0 -2.69093e-21 0 
2.6943e-21 0 0 -1.53575e-20 0 0 -2.6943e-21 0 
2.66188e-21 0 0 1.51727e-20 0 0 2.66188e-21 0 
2.71219e-21 0 0 -1.54595e-20 0 0 -2.71219e-21 0 
2.69384e-21 0 0 1.53549e-20 0 0 2.69384e-21 0 
2.78801e-21 0 -1.58917e-20 0 0 -2.78801e-21 0 0 
2.73626e-21 0 1.55967e-20 0 0 2.73626e-21 0 0 
2.78178e-21 0 0 -1.58561e-20 0 0 -2.78178e-21 0 
2.80213e-21 0 0 1.59721e-20 0 0 2.80213e-21 0 
2.88653e-21 0 -1.64532e-20 0 0 -2.88653e-21 0 0 
2.88076e-21 0 1.64203e-20 0 0 2.88076e-21 0 0 
2.81538e-21 0 -1.60477e-20 0 0 -2.81538e-21 0 0 
2.82244e-21 0 1.60879e-20 0 0 2.82244e-21 0 0 
2.7985e-21 0 1.63712e-20 0 0 2.7985e-21 0 0 
2.80182e-21 0 -1.63906e-20 0 0 -2.80182e-21 0 0 
2.68339e-21 0 1.56978e-20 0 0 2.68339e-21 0 0 
2.68049e-21 0 -1.56809e-20 0 0 -2.68049e-21 0 0 
2.73144e-21 0 -1.55692e-20 0 0 -2.73144e-21 0 0 
2.73832e-21 0 1.56084e-20 0 0 2.73832e-21 0 0 
2.72385e-21 0 1.59345e-20 0 0 2.72385e-21 0 0 
2.72967e-21 0 -7.98427e-21 0 0 -2.72967e-21 0 0 
2.78502e-21 0 0 8.14619e-21 0 0 2.78502e-21 0 
2.79684e-21 0 0 -1.5942e-20 0 0 -2.79684e-21 0 
3.0566e-21 0 0 1.74226e-20 0 0 3.0566e-21 0 
2.75362e-21 0 0 1.61087e-20 0 0 2.75362e-21 0 
2.71459e-21 0 0 -1.58803e-20 0 0 -2.71459e-21 0 
2.73534e-21 0 -1.55915e-20 0 0 -2.73534e-21 0 0 
2.77824e-21 0 1.5836e-20 0 0 2.77824e-21 0 0 
2.84803e-21 0 -1.62338e-20 0 0 -2.84803e-21 0 0 
2.79399e-21 0 1.59257e-20 0 0 2.79399e-21 0 0 
2.81239e-21 0 0 1.60307e-20 0 0 2.81239e-21 0 
2.79198e-21 0 0 -1.59143e-20 0 0 -2.79198e-21 0 
2.76542e-21 0 -1.57629e-20 0 0 -2.76542e-21 0 0 
2.76576e-21 0 1.57648e-20 0 0 2.76576e-21 0 0 
2.79337e-21 0 0 1.59222e-20 0 0 2.79337e-21 0 
2.67096e-21 0 0 -1.52245e-20 0 0 -2.67096e-21 0 
2.71267e-21 0 -1.54622e-20 0 0 -2.71267e-21 0 0 
2.71429e-21 0 1.54714e-20 0 0 2.71429e-21 0 0 
2.71514e-21 0 0 1.54763e-20 0 0 2.71514e-21 0 
3.01795e-21 0 0 -1.72023e-20 0 0 -3.01795e-21 0 
2.79396e-21 0 1.59256e-20 0 0 2.79396e-21 0 0 
2.77913e-21 0 -1.5841e-20 0 0 -2.77913e-21 0 0 
2.75294e-21 0 1.56917e-20 0 0 2.75294e-21 0 0 
2.75727e-21 0 -1.57164e-20 0 0 -2.75727e-21 0 0 
2.72445e-21 0 0 -1.55294e-20 0 0 -2.72445e-21 0 
2.81455e-21 0 0 1.6043e-20 0 0 2.81455e-21 0 
2.75071e-21 0 0 1.5679e-20 0 0 2.75071e-21 0 
3.01649e-21 0 0 -1.7194e-20 0 0 -3.01649e-21 0 
2.79326e-21 0 0 1.59216e-20 0 0 2.79326e-21 0 
3.04699e-21 0 0 -1.73679e-20 0 0 -3.04699e-21 0 
2.77319e-21 0 -1.58072e-20 0 0 -2.77319e-21 0 0 
3.05243e-21 0 1.73989e-20 0 0 3.05243e-21 0 0 
2.79441e-21 0 -1.59281e-20 0 0 -2.79441e-21 0 0 
2.77068e-21 0 1.57929e-20 0 0 2.77068e-21 0 0 
3.01506e-21 0 1.76381e-20 0 0 3.01506e-21 0 0 
2.66692e-21 0 0 -1.56015e-20 0 0 -2.66692e-21 0 
2.76503e-21 0 -1.61754e-20 0 0 -2.76503e-21 0 0 
2.75367e-21 0 1.6109e-20 0 0 2.75367e-21 0 0 
2.73453e-21 0 1.5997e-20 0 0 2.73453e-21 0 0 
2.7754e-21 0 -1.62361e-20 0 0 -2.7754e-21 0 0 
2.72113e-21 0 0 -1.59186e-20 0 0 -2.72113e-21 0 
2.75762e-21 0 0 1.61321e-20 0 0 2.75762e-21 0 
2.6851e-21 0 0 1.57078e-20 0 0 2.6851e-21 0 
2.62167e-21 0 0 -1.53368e-20 0 0 -2.62167e-21 0 
3.02531e-21 0 -1.72443e-20 0 0 -3.02531e-21 0 0 
2.70771e-21 0 1.54339e-20 0 0 2.70771e-21 0 0 
2.67692e-21 0 0 -1.566e-20 0 0 -2.67692e-21 0 
2.77334e-21 0 0 1.62241e-20 0 0 2.77334e-21 0 
2.7115e-21 0 -7.93114e-21 0 0 -2.7115e-21 0 0 
3.02893e-21 0 -1.77193e-20 0 0 -3.02893e-21 0 0 
3.06269e-21 0 1.79167e-20 0 0 3.06269e-21 0 0 
3.02138e-21 0 -1.76751e-20 0 0 -3.02138e-21 0 0 
3.0364e-21 0 1.77629e-20 0 0 3.0364e-21 0 0 
3.01727e-21 0 -1.71985e-20 0 0 -3.01727e-21 0 0 
2.78597e-21 0 1.588e-20 0 0 2.78597e-21 0 0 
3.03079e-21 0 0 -1.77301e-20 0 0 -3.03079e-21 0 
3.00058e-21 0 0 1.75534e-20 0 0 3.00058e-21 0 
2.80721e-21 0 1.60011e-20 0 0 2.80721e-21 0 0 
3.14661e-21 0 -1.79357e-20 0 0 -3.14661e-21 0 0 
3.07633e-21 0 0 1.75351e-20 0 0 3.07633e-21 0 
3.04083e-21 0 0 -1.73328e-20 0 0 -3.04083e-21 0 
3.0852e-21 0 0 1.80484e-20 0 0 3.0852e-21 0 
2.71029e-21 0 7.92761e-21 0 0 2.71029e-21 0 0 
2.75799e-21 0 -1.57205e-20 0 0 -2.75799e-21 0 0 
3.10785e-21 0 1.77147e-20 0 0 3.10785e-21 0 0 
3.02332e-21 0 1.72329e-20 0 0 3.02332e-21 0 0 
3.0053e-21 0 -1.71302e-20 0 0 -3.0053e-21 0 0 
2.99567e-21 0 1.70753e-20 0 0 2.99567e-21 0 0 
3.05923e-21 0 -1.74376e-20 0 0 -3.05923e-21 0 0 
2.99496e-21 0 0 -1.70713e-20 0 0 -2.99496e-21 0 
2.98273e-21 0 0 1.70016e-20 0 0 2.98273e-21 0 
2.77344e-21 0 1.58086e-20 0 0 2.77344e-21 0 0 
3.0728e-21 0 -1.7515e-20 0 0 -3.0728e-21 0 0 
3.05845e-21 0 0 -1.74332e-20 0 0 -3.05845e-21 0 
3.0194e-21 0 0 1.72106e-20 0 0 3.0194e-21 0 
2.9725e-21 0 1.69433e-20 0 0 2.9725e-21 0 0 
2.73773e-21 0 -1.56051e-20 0 0 -2.73773e-21 0 0 
3.03806e-21 0 -1.73169e-20 0 0 -3.03806e-21 0 0 
2.94973e-21 0 1.68135e-20 0 0 2.94973e-21 0 0 
3.04694e-21 0 0 -1.73675e-20 0 0 -3.04694e-21 0 
2.98431e-21 0 0 1.70105e-20 0 0 2.98431e-21 0 
3.02203e-21 0 0 -1.72256e-20 0 0 -3.02203e-21 0 
3.1042e-21 0 0 1.76939e-20 0 0 3.1042e-21 0 
3.03968e-21 0 0 1.73262e-20 0 0 3.03968e-21 0 
2.96303e-21 0 0 -1.68893e-20 0 0 -2.96303e-21 0 
3.12109e-21 0 -1.77902e-20 0 0 -3.12109e-21 0 0 
3.04208e-21 0 1.73399e-20 0 0 3.04208e-21 0 0 
2.99576e-21 0 0 1.70759e-20 0 0 2.99576e-21 0 
3.05531e-21 0 0 -1.74153e-20 0 0 -3.05531e-21 0 
3.05538e-21 0 0 -1.74156e-20 0 0 -3.05538e-21 0 
2.77538e-21 0 0 1.58196e-20 0 0 2.77538e-21 0 
3.06439e-21 0 1.7467e-20 0 0 3.06439e-21 0 0 
3.08636e-21 0 -1.75922e-20 0 0 -3.08636e-21 0 0 
3.03668e-21 0 -1.73091e-20 0 0 -3.03668e-21 0 0 
3.06441e-21 0 1.74671e-20 0 0 3.06441e-21 0 0 
3.02356e-21 0 0 1.72343e-20 0 0 3.02356e-21 0 
3.02648e-21 0 0 -1.72509e-20 0 0 -3.02648e-21 0 
3.03573e-21 0 1.73037e-20 0 0 3.03573e-21 0 0 
3.10102e-21 0 -1.76758e-20 0 0 -3.10102e-21 0 0 
3.03765e-21 0 0 1.73146e-20 0 0 3.03765e-21 0 
3.04956e-21 0 0 -1.73825e-20 0 0 -3.04956e-21 0 
2.54889e-21 -3.45467e-24 0 -1.81608e-21 -4.84865e-24 0 -2.54889e-21 2.39116e-34 
9.24956e-21 -1.13393e-22 -3.81012e-23 -1.70407e-21 -6.13979e-22 -2.06303e-22 -9.22685e-21 -4.51217e-35 
5.18691e-21 -3.71772e-23 -1.63545e-23 -9.59308e-22 -2.00834e-22 -8.83481e-23 -5.18226e-21 6.50252e-34 
1.01445e-20 -1.24928e-22 -8.35762e-23 -1.8358e-21 -6.88038e-22 -4.60295e-22 -1.01107e-20 -5.5075e-34 
2.6798e-21 -3.18928e-25 -9.58356e-28 -6.69949e-22 -1.27571e-24 -3.83342e-27 -2.6798e-21 -5.03705e-34 
2.8415e-21 -4.02568e-24 -2.11111e-23 -6.82521e-22 -1.67516e-23 -8.78471e-23 -2.8401e-21 -3.7759e-34 
3.07977e-21 -5.44432e-24 -1.72266e-23 -4.96464e-22 -3.3751e-23 -1.06793e-22 -3.07774e-21 2.98486e-34 
3.01318e-21 -9.82798e-24 -2.37015e-23 -5.44461e-22 -5.43301e-23 -1.31024e-22 -3.00984e-21 1.58677e-34 
5.56035e-21 -3.92695e-23 -1.75319e-23 -1.02838e-21 -2.12142e-22 -9.47111e-23 -5.5555e-21 7.10291e-34 
4.12152e-21 -2.3041e-23 -3.89865e-23 -7.41232e-22 -1.27878e-22 -2.16376e-22 -4.11385e-21 -1.00209e-33 
5.5647e-21 -5.31842e-23 -4.0666e-23 -1.01127e-21 -2.92017e-22 -2.23284e-22 -5.55254e-21 2.99954e-34 
2.10081e-21 -3.27185e-24 -7.95785e-24 -6.87038e-22 -1.00038e-23 -2.43314e-23 -2.10064e-21 -4.30321e-34 
3.64133e-21 -1.05572e-23 -6.78955e-24 -6.00254e-22 -6.40292e-23 -4.11785e-23 -3.64053e-21 3.93102e-34 
3.67976e-21 -5.05814e-24 -1.74727e-23 -4.40908e-22 -4.21787e-23 -1.45701e-22 -3.67663e-21 -1.46701e-34 
2.53123e-21 -4.39209e-24 -7.14348e-24 -4.13377e-22 -2.68886e-23 -4.37327e-23 -2.53071e-21 -2.15406e-34 
1.24046e-21 -3.93444e-25 0 -2.32587e-23 -2.09806e-23 0 -1.24029e-21 1.38252e-33 
3.4131e-21 -1.10301e-23 1.78983e-23 -6.24469e-22 -6.02521e-23 9.77695e-23 -3.41117e-21 -4.29921e-34 
3.14978e-21 -1.15424e-23 0 -1.12211e-21 -3.2398e-23 0 -3.14961e-21 2.2351e-34 
3.33554e-21 -4.2515e-25 1.07037e-23 -8.03531e-22 -1.76469e-24 4.44284e-23 -3.33525e-21 2.30597e-35 
2.49106e-21 -3.52919e-24 1.85074e-23 -5.98345e-22 -1.46856e-23 7.70129e-23 -2.48983e-21 2.65854e-34 
6.65469e-21 -6.36766e-23 5.48252e-23 -1.20427e-21 -3.51018e-22 3.02225e-22 -6.63855e-21 1.17396e-34 
4.7902e-21 -3.38742e-23 1.75033e-23 -8.84341e-22 -1.83316e-22 9.47218e-23 -4.78575e-21 -1.00216e-34 
5.63848e-21 -4.87882e-23 6.18081e-23 -1.00841e-21 -2.7197e-22 3.4455e-22 -5.62137e-21 1.23878e-34 
3.67914e-21 -1.83996e-23 2.32012e-23 -6.71061e-22 -1.00779e-22 1.27078e-22 -3.67556e-21 -2.02861e-34 
3.50536e-21 -6.8232e-24 1.96071e-23 -5.65068e-22 -4.22986e-23 1.21549e-22 -3.50299e-21 3.32923e-34 
2.73406e-21 -4.73603e-24 5.09788e-24 -4.50695e-22 -2.87268e-23 3.09216e-23 -2.73373e-21 4.49304e-35 
4.01653e-21 -3.75443e-23 0 -1.43089e-21 -1.05351e-22 0 -4.01515e-21 6.26167e-34 
2.47532e-21 -8.40142e-25 0 -1.76367e-21 -1.17915e-24 0 -2.47532e-21 1.39052e-34 
2.79962e-21 -4.61043e-24 1.64448e-23 -6.80938e-22 -1.89494e-23 6.75902e-23 -2.79874e-21 1.90284e-35 
8.17799e-21 -9.73081e-23 0 -1.49504e-21 -5.3116e-22 0 -8.16072e-21 -7.98565e-34 
2.94534e-21 -3.992e-24 2.09855e-21 0 -5.60279e-24 2.94533e-21 0 -1.92333e-34 
9.6736e-21 -1.18592e-22 1.78219e-21 -3.98479e-23 -6.42126e-22 9.64985e-21 -2.1576e-22 2.85771e-34 
4.51374e-21 -3.23523e-23 8.34808e-22 -1.42319e-23 -1.7477e-22 4.5097e-21 -7.68821e-23 -5.20202e-34 
1.11239e-20 -1.36989e-22 2.01304e-21 -9.16451e-23 -7.54465e-22 1.10868e-20 -5.04734e-22 -4.84456e-34 
2.30929e-21 -2.74834e-25 5.77323e-22 -8.25855e-28 -1.09933e-24 2.30929e-21 -3.30342e-27 -7.40742e-36 
3.1575e-21 -4.47337e-24 7.58422e-22 -2.34588e-23 -1.86145e-23 3.15594e-21 -9.76164e-23 4.27678e-34 
2.58788e-21 -4.57476e-24 4.1717e-22 -1.44753e-23 -2.83604e-23 2.58617e-21 -8.97367e-23 8.03617e-35 
3.61744e-21 -1.17989e-23 6.53647e-22 -2.84545e-23 -6.52254e-23 3.61343e-21 -1.573e-22 -6.75658e-34 
4.94655e-21 -3.49345e-23 9.14855e-22 -1.55966e-23 -1.88723e-22 4.94223e-21 -8.4256e-23 2.75113e-34 
4.42931e-21 -2.47616e-23 7.96586e-22 -4.1898e-23 -1.37428e-22 4.42107e-21 -2.32535e-22 -3.90558e-34 
6.4058e-21 -6.1223e-23 1.16412e-21 -4.68127e-23 -3.36156e-22 6.39181e-21 -2.57033e-22 3.91466e-34 
2.29195e-21 -3.56954e-24 7.49548e-22 -8.68189e-24 -1.0914e-23 2.29177e-21 -2.65452e-23 3.73699e-34 
3.06705e-21 -8.89221e-24 5.05587e-22 -5.71876e-24 -5.39311e-23 3.06638e-21 -3.46842e-23 5.05416e-35 
2.86267e-21 -3.93498e-24 3.43005e-22 -1.35929e-23 -3.28129e-23 2.86024e-21 -1.13348e-22 -2.70239e-34 
2.72205e-21 -4.72318e-24 4.44538e-22 -7.68197e-24 -2.89156e-23 2.72149e-21 -4.70295e-23 3.68458e-34 
5.18687e-22 -1.64514e-25 9.7254e-24 0 -8.77284e-24 5.18613e-22 0 0 
3.22479e-21 -1.04215e-23 5.90014e-22 1.69107e-23 -5.69277e-23 3.22296e-21 9.23751e-23 -2.73126e-34 
3.3012e-21 -1.20973e-23 1.17605e-21 0 -3.39555e-23 3.30103e-21 0 7.53698e-35 
2.46969e-21 -3.14788e-25 5.94947e-22 7.92522e-24 -1.3066e-24 2.46947e-21 3.28955e-23 5.3806e-35 
3.16996e-21 -4.49102e-24 7.61416e-22 2.35514e-23 -1.8688e-23 3.16839e-21 9.80016e-23 -7.01239e-34 
6.74059e-21 -6.44985e-23 1.21981e-21 5.55329e-23 -3.55549e-22 6.72424e-21 3.06126e-22 1.48022e-34 
4.1804e-21 -2.9562e-23 7.71763e-22 1.52751e-23 -1.59979e-22 4.17652e-21 8.26635e-23 7.91708e-34 
5.77159e-21 -4.994e-23 1.03221e-21 6.32672e-23 -2.78391e-22 5.75408e-21 3.52684e-22 1.08393e-34 
4.79112e-21 -2.39607e-23 8.73882e-22 3.02135e-23 -1.31239e-22 4.78646e-21 1.65486e-22 -4.56438e-35 
3.95723e-21 -7.70277e-24 6.37911e-22 2.21347e-23 -4.77513e-23 3.95456e-21 1.37218e-22 6.94546e-34 
3.41109e-21 -5.90882e-24 5.62302e-22 6.36027e-24 -3.58404e-23 3.41069e-21 3.85787e-23 -3.36978e-34 
4.86811e-21 -4.55044e-23 1.73426e-21 0 -1.27688e-22 4.86644e-21 0 6.41756e-34 
2.53484e-21 -8.6034e-25 1.80607e-21 0 -1.2075e-24 2.53484e-21 0 -1.29955e-35 
3.07273e-21 -5.06019e-24 7.47366e-22 1.80491e-23 -2.0798e-23 3.07176e-21 7.41838e-23 -3.61539e-34 
8.91433e-21 -1.0607e-22 1.62965e-21 0 -5.78985e-22 8.89551e-21 0 -5.15529e-34 
2.59264e-21 -3.51396e-24 0 1.84725e-21 -4.93186e-24 0 2.59263e-21 -1.4425e-34 
8.32707e-21 -1.02084e-22 3.43012e-23 1.53412e-21 -5.52744e-22 1.85727e-22 8.30663e-21 -3.96068e-34 
5.60557e-21 -4.01779e-23 1.76745e-23 1.03674e-21 -2.17045e-22 9.54792e-23 5.60055e-21 -4.85188e-34 
1.03375e-20 -1.27304e-22 8.51661e-23 1.87072e-21 -7.01127e-22 4.69051e-22 1.0303e-20 1.63185e-34 
2.49218e-21 -2.966e-25 8.9126e-28 6.23045e-22 -1.1864e-24 3.56504e-27 2.49218e-21 2.55556e-34 
3.17263e-21 -4.4948e-24 2.35712e-23 7.62057e-22 -1.87037e-23 9.80841e-23 3.17106e-21 4.54649e-34 
2.96956e-21 -5.24949e-24 1.66102e-23 4.78698e-22 -3.25432e-23 1.02972e-22 2.9676e-21 -2.69786e-34 
3.09333e-21 -1.00894e-23 2.4332e-23 5.58945e-22 -5.57754e-23 1.3451e-22 3.08991e-21 -2.40575e-34 
5.23662e-21 -3.69831e-23 1.65112e-23 9.68503e-22 -1.9979e-22 8.91969e-23 5.23205e-21 4.50184e-34 
4.06147e-21 -2.27053e-23 3.84185e-23 7.30432e-22 -1.26015e-22 2.13223e-22 4.05391e-21 -1.06376e-33 
6.1266e-21 -5.85546e-23 4.47723e-23 1.11338e-21 -3.21504e-22 2.4583e-22 6.11322e-21 -6.96504e-34 
2.45399e-21 -3.82192e-24 9.29572e-24 8.02543e-22 -1.16856e-23 2.8422e-23 2.4538e-21 3.59544e-34 
3.00369e-21 -8.70852e-24 5.60063e-24 4.95143e-22 -5.2817e-23 3.39677e-23 3.00303e-21 -2.75171e-34 
3.5958e-21 -4.94273e-24 1.7074e-23 4.30848e-22 -4.12163e-23 1.42376e-22 3.59274e-21 -1.08095e-34 
3.61732e-21 -6.27662e-24 1.02085e-23 5.90745e-22 -3.84258e-23 6.24973e-23 3.61657e-21 9.9767e-34 
2.18186e-21 -6.92029e-25 0 4.09099e-23 -3.69029e-23 0 2.18154e-21 -2.96254e-34 
3.59537e-21 -1.16191e-23 -1.8854e-23 6.57816e-22 -6.34696e-23 -1.0299e-22 3.59333e-21 -4.60268e-34 
3.02438e-21 -1.10829e-23 0 1.07744e-21 -3.11082e-23 0 3.02422e-21 -2.85885e-34 
3.06819e-21 -3.91074e-25 -9.84581e-24 7.39126e-22 -1.62324e-24 -4.08674e-23 3.06792e-21 -8.83956e-35 
2.7894e-21 -3.95186e-24 -2.0724e-23 6.70005e-22 -1.64444e-23 -8.62362e-23 2.78802e-21 -3.42913e-34 
6.75119e-21 -6.45999e-23 -5.56202e-23 1.22173e-21 -3.56108e-22 -3.06607e-22 6.73481e-21 1.02084e-34 
4.90238e-21 -3.46675e-23 -1.79132e-23 9.05051e-22 -1.87609e-22 -9.694e-23 4.89783e-21 -4.25919e-34 
5.36766e-21 -4.64449e-23 -5.88394e-23 9.59972e-22 -2.58907e-22 -3.28001e-22 5.35137e-21 1.39879e-33 
3.98525e-21 -1.99305e-23 -2.51315e-23 7.26894e-22 -1.09164e-22 -1.37651e-22 3.98137e-21 -6.79585e-34 
2.97259e-21 -5.78616e-24 -1.66271e-23 4.79186e-22 -3.58698e-23 -1.03075e-22 2.97059e-21 2.58302e-34 
3.14739e-21 -5.45201e-24 -5.86856e-24 5.18831e-22 -3.30697e-23 -3.55963e-23 3.14701e-21 -7.30118e-35 
4.3733e-21 -4.08792e-23 0 1.55799e-21 -1.14709e-22 0 4.3718e-21 1.13801e-33 
2.57957e-21 -8.75525e-25 0 1.83795e-21 -1.22881e-24 0 2.57957e-21 6.49774e-35 
3.08152e-21 -5.07467e-24 -1.81007e-23 7.49505e-22 -2.08575e-23 -7.43962e-23 3.08056e-21 9.13362e-35 
8.87805e-21 -1.05638e-22 0 1.62302e-21 -5.76628e-22 0 8.8593e-21 -2.12277e-34 
2.858e-21 -3.87362e-24 -2.03632e-21 0 -5.43665e-24 -2.85799e-21 0 -2.59909e-36 
9.86209e-21 -1.20903e-22 -1.81692e-21 4.06244e-23 -6.54638e-22 -9.83788e-21 2.19964e-22 1.60433e-34 
3.97223e-21 -2.8471e-23 -7.34656e-22 1.25245e-23 -1.53802e-22 -3.96867e-21 6.76586e-23 2.85111e-34 
1.10165e-20 -1.35666e-22 -1.9936e-21 9.07603e-23 -7.47181e-22 -1.09798e-20 4.99861e-22 -7.85329e-34 
2.2204e-21 -2.64254e-25 -5.551e-22 7.94065e-28 -1.05702e-24 -2.2204e-21 3.17626e-27 1e-34 
2.64239e-21 -3.74359e-24 -6.34695e-22 1.96318e-23 -1.55778e-23 -2.64108e-21 8.16914e-23 -7.70592e-36 
2.88292e-21 -5.09632e-24 -4.6473e-22 1.61255e-23 -3.15937e-23 -2.88101e-21 9.99672e-23 -2.23865e-34 
3.75012e-21 -1.22316e-23 -6.77621e-22 2.94982e-23 -6.76177e-23 -3.74596e-21 1.63069e-22 1.27966e-34 
5.07928e-21 -3.5872e-23 -9.39404e-22 1.60151e-23 -1.93788e-22 -5.07485e-21 8.65169e-23 -9.50389e-35 
4.46702e-21 -2.49725e-23 -8.03368e-22 4.22547e-23 -1.38598e-22 -4.45871e-21 2.34514e-22 -3.90558e-34 
6.1211e-21 -5.8502e-23 -1.11238e-21 4.47322e-23 -3.21216e-22 -6.10773e-21 2.4561e-22 -2.54198e-35 
2.60152e-21 -4.05168e-24 -8.50789e-22 9.85454e-24 -1.23881e-23 -2.60132e-21 3.01306e-23 -2.54795e-34 
3.17116e-21 -9.19407e-24 -5.2275e-22 5.91289e-24 -5.57619e-23 -3.17047e-21 3.58616e-23 1.68472e-34 
3.61727e-21 -4.97223e-24 -4.3342e-22 1.71759e-23 -4.14623e-23 -3.61419e-21 1.43226e-22 -5.79083e-34 
2.7639e-21 -4.79581e-24 -4.51374e-22 7.8001e-24 -2.93602e-23 -2.76333e-21 4.77526e-23 1.87063e-34 
4.40009e-22 -1.3956e-25 -8.25018e-24 0 -7.44211e-24 -4.39946e-22 0 5.92508e-34 
3.2479e-21 -1.04962e-23 -5.94242e-22 -1.70319e-23 -5.73356e-23 -3.24606e-21 -9.30371e-23 -3.23705e-34 
2.85698e-21 -1.04694e-23 -1.0178e-21 0 -2.93863e-23 -2.85683e-21 0 4.41823e-35 
2.93639e-21 -3.74274e-25 -7.07375e-22 -9.42287e-24 -1.55351e-24 -2.93613e-21 -3.91119e-23 -5.76493e-35 
2.62752e-21 -3.72252e-24 -6.31122e-22 -1.95213e-23 -1.54901e-23 -2.62622e-21 -8.12316e-23 1.73383e-34 
8.11374e-21 -7.76378e-23 -1.46831e-21 -6.68458e-23 -4.27979e-22 -8.09406e-21 -3.68488e-22 9.90213e-34 
4.39531e-21 -3.10817e-23 -8.11438e-22 -1.60603e-23 -1.68204e-22 -4.39123e-21 -8.69132e-23 1.08735e-33 
5.22768e-21 -4.52336e-23 -9.34937e-22 -5.73049e-23 -2.52155e-22 -5.21181e-21 -3.19447e-22 6.34876e-34 
4.7037e-21 -2.35235e-23 -8.57937e-22 -2.96622e-23 -1.28844e-22 -4.69913e-21 -1.62467e-22 -1.16645e-34 
3.69985e-21 -7.20179e-24 -5.96422e-22 -2.06951e-23 -4.46456e-23 -3.69736e-21 -1.28294e-22 1.04469e-33 
2.88363e-21 -4.99513e-24 -4.75352e-22 -5.37677e-24 -3.02984e-23 -2.88329e-21 -3.26133e-23 -3.59443e-34 
4.71063e-21 -4.40323e-23 -1.67816e-21 0 -1.23557e-22 -4.70901e-21 0 8.47014e-34 
2.90125e-21 -9.84703e-25 -2.06714e-21 0 -1.38204e-24 -2.90125e-21 0 -5.32815e-35 
2.43274e-21 -4.00626e-24 -5.91704e-22 -1.42898e-23 -1.64662e-23 -2.43198e-21 -5.87328e-23 -1.17976e-34 
9.38673e-21 -1.11691e-22 -1.71601e-21 0 -6.09667e-22 -9.36691e-21 0 -5.61017e-34 
1.51878e-20 0 -1.26869e-20 -1.26869e-20 0 -1.07394e-20 -1.07394e-20 7.85363e-33 
0 0 0 0 0 0 0 0 
0 0 0 0 0 0 0 0 
0 0 0 0 0 0 0 0 
0 0 0 0 0 0 0 0 
0 0 0 0 0 0 0 0 
0 0 0 0 0 0 0 0 
0 0 0 0 0 0 0 0 
0 0 0 0 0 0 0 0 
0 0 0 0 0 0 0 0 
0 0 0 0 0 0 0 0 
0 0 0 0 0 0 0 0 
0 0 0 0 0 0 0 0 
0 0 0 0 0 0 0 0 
0 0 0 0 0 0 0 0 
0 0 0 0 0 0 0 0 
0 0 0 0 0 0 0 0 
0 0 0 0 0 0 0 0 
0 0 0 0 0 0 0 0 
0 0 0 0 0 0 0 0 
0 0 0 0 0 0 0 0 
0 0 0 0 0 0 0 0 
0 0 0 0 0 0 0 0 
0 0 0 0 0 0 0 0 
0 0 0 0 0 0 0 0 
0 0 0 0 0 0 0 0 
0 0 0 0 0 0 0 0 
0 0 0 0 0 0 0 0 
0 0 0 0 0 0 0 0 
0 0 0 0 0 0 0 0 
0 0 0 0 0 0 0 0 
0 0 0 0 0 0 0 0 
0 0 0 0 0 0 0 0 
0 0 0 0 0 0 0 0 
0 0 0 0 0 0 0 0 
0 0 0 0 0 0 0 0 
0 0 0 0 0 0 0 0 
0 0 0 0 0 0 0 0 
0 0 0 0 0 0 0 0 
0 0 0 0 0 0 0 0 
0 0 0 0 0 0 0 0 
0 0 0 0 0 0 0 0 
0 0 0 0 0 0 0 0 
0 0 0 0 0 0 0 0 
0 0 0 0 0 0 0 0 
0 0 0 0 0 0 0 0 
0 0 0 0 0 0 0 0 
1.48699e-20 0 1.24213e-20 1.24213e-20 0 1.05146e-20 1.05146e-20 7.77839e-33 
3.10714e-20 -1.27146e-21 -1.92684e-22 -7.17536e-21 -5.41945e-21 -8.2129e-22 -3.05841e-20 -1.50249e-32 
3.7152e-20 -2.25651e-21 -8.23987e-22 -1.25132e-20 -6.57951e-21 -2.40257e-21 -3.64858e-20 -1.03187e-32 
2.73179e-20 -9.99683e-22 -1.75805e-22 -5.59098e-21 -4.80595e-21 -8.45177e-22 -2.68785e-20 -1.06388e-33 
5.89811e-20 -1.7716e-21 -1.41361e-21 -7.00388e-21 -1.41943e-20 -1.13261e-20 -5.6116e-20 -4.86664e-33 
7.68984e-20 -1.27479e-21 -7.53791e-22 -5.1263e-21 -1.83715e-20 -1.08632e-20 -7.38772e-20 -4.17665e-33 
7.2179e-20 -1.26921e-21 -5.02524e-22 -5.21706e-21 -1.69878e-20 -6.72607e-21 -6.98282e-20 3.50727e-33 
4.51546e-20 -7.39487e-22 -2.70548e-22 -3.33488e-21 -9.74477e-21 -3.56521e-21 -4.39462e-20 6.10082e-33 
2.74105e-20 -8.60793e-22 -2.40951e-22 -4.72836e-21 -4.90321e-21 -1.37249e-21 -2.69335e-20 9.17715e-34 
3.04524e-20 -1.06074e-21 -2.83966e-22 -5.71321e-21 -5.55228e-21 -1.48638e-21 -2.9905e-20 -2.55418e-33 
2.96815e-20 -9.54024e-22 -4.20803e-22 -5.07157e-21 -5.46905e-21 -2.4123e-21 -2.90733e-20 1.34292e-33 
3.37045e-20 -1.12379e-21 -5.67458e-22 -5.73721e-21 -6.44852e-21 -3.25619e-21 -3.29212e-20 -9.56368e-35 
8.02984e-20 -1.85946e-21 -1.63918e-21 -9.24013e-21 -1.56072e-20 -1.37583e-20 -7.75562e-20 2.48461e-32 
3.10485e-20 -1.16531e-21 -6.73558e-22 -5.82401e-21 -6.05287e-21 -3.49861e-21 -3.02512e-20 -3.32815e-33 
3.95671e-20 -8.61803e-22 -3.00831e-22 -4.24352e-21 -7.85587e-21 -2.74226e-21 -3.86823e-20 8.38132e-33 
3.60373e-20 -9.97105e-22 -5.3793e-22 -4.69836e-21 -7.43488e-21 -4.01106e-21 -3.50331e-20 -3.59016e-34 
5.4149e-20 -9.10043e-22 -4.3147e-22 -3.71607e-21 -1.2799e-20 -6.06827e-21 -5.22635e-20 -1.20457e-32 
4.18324e-20 -6.51087e-22 -2.86282e-22 -2.92155e-21 -9.05806e-21 -3.98281e-21 -4.06452e-20 -1.05372e-32 
4.13292e-20 -1.2722e-21 -5.65988e-22 -5.776e-21 -8.84948e-21 -3.93705e-21 -4.01782e-20 -3.28481e-34 
4.00225e-20 -1.09133e-21 -7.41732e-22 -4.92522e-21 -8.56611e-21 -5.82202e-21 -3.86592e-20 2.48559e-33 
5.41553e-20 -1.25974e-21 -1.20438e-21 -5.80083e-21 -1.12632e-20 -1.07683e-20 -5.1865e-20 1.17557e-32 
4.40183e-20 -1.16589e-21 -9.96948e-22 -5.00022e-21 -9.81229e-21 -8.39043e-21 -4.20824e-20 3.42879e-34 
4.36816e-20 -1.31586e-21 -7.83132e-22 -5.68675e-21 -9.75991e-21 -5.80857e-21 -4.21792e-20 1.40101e-33 
5.79548e-20 -9.83303e-22 -4.73771e-22 -4.05535e-21 -1.35695e-20 -6.53798e-21 -5.59633e-20 5.77551e-33 