ITEM: TIMESTEP
135
ITEM: NUMBER OF SURFS
6916
ITEM: BOX BOUNDS oo rr rr
-0.35 0.35
-0.25 0.25
-0.25 0.25
ITEM: SURFS f_save[1] f_save[2] f_save[3] f_save[4] f_save[5] f_save[6] f_save[7] f_save[8] 
11.746 -8.81316e-05 0 0 -11.746 0 0 0 
5.59299 -4.19649e-05 0 0 -5.59299 0 0 0 
0 0 0 0 0 0 0 0 
0.936408 -1.37423e-05 0.00028104 3.27602e-07 0 0.936408 0 107.407 
0.781958 -5.41411e-05 0.000234668 -1.93933e-05 0 0.781958 0 432.949 
0.951002 -3.89963e-05 -0.00028542 4.00855e-06 0 -0.951002 0 263.076 
1.03561 -3.21479e-05 -0.000310789 -3.49584e-06 0 -1.03561 0 239.143 
0 0 0 0 0 0 0 0 
0 0 0 0 0 0 0 0 
0 0 0 0 0 0 0 0 
0.2157 -5.49773e-05 4.44192e-07 0.000126185 0 0 0.2157 177.5 
0.187116 -2.72394e-06 -3.84359e-06 0.000109463 0 0 0.187116 11.8268 
0 0 0 0 0 0 0 0 
10.3901 -2.5326e-05 0 0 -10.3901 0 0 0 
0 0 0 0 0 0 0 0 
103.58 -1.29476e-05 -2.2554e-06 3.87746e-07 -103.58 0 0 140304 
0 0 0 0 0 0 0 0 
0 0 0 0 0 0 0 0 
11.0713 -2.69863e-05 0 0 -11.0713 0 0 0 
16.074 -3.91804e-05 0 0 -16.074 0 0 0 
0 0 0 0 0 0 0 0 
0 0 0 0 0 0 0 0 
9.71904 -2.30828e-05 0 0 -9.71904 0 0 0 
6.91352 -1.64196e-05 0 0 -6.91352 0 0 0 
0 0 0 0 0 0 0 0 
0 0 0 0 0 0 0 0 
0 0 0 0 0 0 0 0 
0 0 0 0 0 0 0 0 
9.51264 -2.31871e-05 0 0 -9.51264 0 0 0 
17.1208 -4.17321e-05 0 0 -17.1208 0 0 0 
0 0 0 0 0 0 0 0 
179.351 -2.2419e-05 0 0 -179.351 0 0 0 
12.3821 -2.94076e-05 1.63063e-06 -5.34154e-07 -12.3821 0 0 9850.61 
10.3956 -2.46895e-05 0 0 -10.3956 0 0 0 
15.6321 -3.71262e-05 -1.39254e-06 -1.04342e-06 -15.6321 0 0 8832.84 
0 0 0 0 0 0 0 0 
12.2469 -2.90864e-05 1.05036e-06 9.64229e-07 -12.2469 0 0 8285.53 
0 0 0 0 0 0 0 0 
9.51983 -2.26095e-05 0 0 -9.51983 0 0 0 
30.5785 -7.26237e-05 0 0 -30.5785 0 0 0 
10.5917 -2.51553e-05 0 0 -10.5917 0 0 0 
26.4995 -6.29363e-05 0 0 -26.4995 0 0 0 
21.2933 -5.05716e-05 0 0 -21.2933 0 0 0 
18.6378 -4.42649e-05 0 0 -18.6378 0 0 0 
5.51069 -1.30879e-05 -1.43911e-06 1.79799e-06 -5.51069 0 0 8706.38 
0 0 0 0 0 0 0 0 
21.5912 -5.26284e-05 -7.89016e-07 1.74806e-07 -21.5912 0 0 8083.45 
3.32 -8.09247e-06 -1.03883e-06 -4.79886e-07 -3.32 0 0 5950.61 
20.0677 -4.89152e-05 0 0 -20.0677 0 0 0 
9.87953 -2.40814e-05 0 0 -9.87953 0 0 0 
20.6514 -5.03379e-05 0 0 -20.6514 0 0 0 
6.18378 -1.5073e-05 0 0 -6.18378 0 0 0 
0 0 0 0 0 0 0 0 
0 0 0 0 0 0 0 0 
9.00017 -2.13755e-05 0 0 -9.00017 0 0 0 
0 0 0 0 0 0 0 0 
17.1287 -4.06807e-05 0 0 -17.1287 0 0 0 
0 0 0 0 0 0 0 0 
10.8722 -2.58213e-05 0 0 -10.8722 0 0 0 
32.4018 -7.69541e-05 0 0 -32.4018 0 0 0 
9.27431 -2.26062e-05 0 0 -9.27431 0 0 0 
8.91036 -2.1719e-05 0 0 -8.91036 0 0 0 
18.3624 -4.47585e-05 0 0 -18.3624 0 0 0 
20.7118 -5.04851e-05 0 0 -20.7118 0 0 0 
0 0 0 0 0 0 0 0 
0 0 0 0 0 0 0 0 
9.17949 -2.23751e-05 0 0 -9.17949 0 0 0 
4.12817 -1.00625e-05 8.54715e-07 7.92236e-07 -4.12817 0 0 5663.92 
21.0393 -4.99685e-05 0 0 -21.0393 0 0 0 
0 0 0 0 0 0 0 0 
13.5849 -3.31133e-05 0 0 -13.5849 0 0 0 
6.59811 -1.6083e-05 0 0 -6.59811 0 0 0 
0 0 0 0 0 0 0 0 
10.5154 -2.49742e-05 0 0 -10.5154 0 0 0 
19.7899 -4.82378e-05 0 0 -19.7899 0 0 0 
10.0715 -2.45492e-05 -2.68235e-06 7.21267e-07 -10.0715 0 0 15216.4 
17.5409 -4.2756e-05 -1.33865e-06 7.29715e-07 -17.5409 0 0 11774.8 
9.22762 -2.24924e-05 0 0 -9.22762 0 0 0 
4.07944 -9.68867e-06 0 0 -4.07944 0 0 0 
20.2537 -4.81025e-05 0 0 -20.2537 0 0 0 
0 0 0 0 0 0 0 0 
0 0 0 0 0 0 0 0 
20.41 -4.84738e-05 0 0 -20.41 0 0 0 
7.25861 -1.72392e-05 0 0 -7.25861 0 0 0 
9.4631 -2.24749e-05 0 0 -9.4631 0 0 0 
10.0661 -2.3907e-05 0 0 -10.0661 0 0 0 
9.70739 -2.3055e-05 0 0 -9.70739 0 0 0 
10.3621 -2.46099e-05 0 0 -10.3621 0 0 0 
0 0 0 0 0 0 0 0 
18.8325 -4.59043e-05 0 0 -18.8325 0 0 0 
3.76104 -9.16759e-06 0 0 -3.76104 0 0 0 
19.17 -4.67271e-05 0 0 -19.17 0 0 0 
0 0 0 0 0 0 0 0 
0 0 0 0 0 0 0 0 
28.5839 -6.96734e-05 0 0 -28.5839 0 0 0 
28.5119 -6.94979e-05 2.15092e-06 1.26519e-06 -28.5119 0 0 15865.3 
22.0429 -5.2352e-05 -1.11824e-07 -1.29577e-06 -22.0429 0 0 7862.81 
3.51796 -8.35517e-06 1.21616e-06 -5.55657e-07 -3.51796 0 0 4413.56 
0 0 0 0 0 0 0 0 
0 0 0 0 0 0 0 0 
10.2605 -2.43687e-05 0 0 -10.2605 0 0 0 
29.8828 -7.09718e-05 5.22052e-06 4.47395e-07 -29.8828 0 0 16081 
5.16282 -1.22617e-05 8.63861e-07 8.93858e-07 -5.16282 0 0 7962.35 
20.2488 -4.8091e-05 0 0 -20.2488 0 0 0 
0 0 0 0 0 0 0 0 
0 0 0 0 0 0 0 0 
5.44758 -1.2938e-05 5.37637e-07 -3.84631e-07 -5.44758 0 0 9543.47 
0 0 0 0 0 0 0 0 
6.12987 -1.45584e-05 0 0 -6.12987 0 0 0 
6.15846 -1.46263e-05 -9.83708e-07 -1.58321e-06 -6.15846 0 0 9976.7 
0 0 0 0 0 0 0 0 
0 0 0 0 0 0 0 0 
20.8405 -4.9496e-05 0 0 -20.8405 0 0 0 
10.6276 -2.52405e-05 0 0 -10.6276 0 0 0 
0 0 0 0 0 0 0 0 
2.27288 -5.39809e-06 8.85742e-06 -1.11106e-06 -2.27288 0 0 4470.41 
0 0 0 0 0 0 0 0 
0 0 0 0 0 0 0 0 
8.70728 -2.06798e-05 0 0 -8.70728 0 0 0 
0 0 0 0 0 0 0 0 
9.11293 -2.16432e-05 0 0 -9.11293 0 0 0 
2.02455 -4.80831e-06 -7.66278e-06 -2.79557e-06 -2.02455 0 0 5832.37 
0 0 0 0 0 0 0 0 
0 0 0 0 0 0 0 0 
5.2665 -1.2508e-05 -5.81136e-07 -1.73648e-06 -5.2665 0 0 8433.43 
7.24034 -1.71958e-05 0 0 -7.24034 0 0 0 
12.5646 -3.06261e-05 0 0 -12.5646 0 0 0 
10.0858 -2.45842e-05 0 0 -10.0858 0 0 0 
0 0 0 0 0 0 0 0 
0 0 0 0 0 0 0 0 
8.78991 -2.08761e-05 0 0 -8.78991 0 0 0 
0 0 0 0 0 0 0 0 
10.4866 -2.55611e-05 0 0 -10.4866 0 0 0 
17.1971 -4.19181e-05 0 0 -17.1971 0 0 0 
0 0 0 0 0 0 0 0 
0 0 0 0 0 0 0 0 
9.1499 -2.17311e-05 0 0 -9.1499 0 0 0 
10.6526 -2.52999e-05 0 0 -10.6526 0 0 0 
0 0 0 0 0 0 0 0 
28.5092 -6.94911e-05 0 0 -28.5092 0 0 0 
0 0 0 0 0 0 0 0 
0 0 0 0 0 0 0 0 
15.9811 -3.79553e-05 5.37857e-08 2.66353e-07 -15.9811 0 0 8572.44 
10.5378 -2.50274e-05 0 0 -10.5378 0 0 0 
0 0 0 0 0 0 0 0 
14.4976 -3.5338e-05 -1.53328e-07 -2.44248e-06 -14.4976 0 0 8900.43 
0 0 0 0 0 0 0 0 
0 0 0 0 0 0 0 0 
8.2365 -1.95618e-05 0 0 -8.2365 0 0 0 
10.0046 -2.37611e-05 0 0 -10.0046 0 0 0 
37.7157 -9.1932e-05 0 0 -37.7157 0 0 0 
22.1205 -5.39186e-05 3.77038e-07 -7.8703e-07 -22.1205 0 0 8641.15 
0 0 0 0 0 0 0 0 
0 0 0 0 0 0 0 0 
0 0 0 0 0 0 0 0 
0 0 0 0 0 0 0 0 
9.56553 -2.27182e-05 0 0 -9.56553 0 0 0 
12.7322 -3.02391e-05 0 0 -12.7322 0 0 0 
0 0 0 0 0 0 0 0 
0 0 0 0 0 0 0 0 
10.0318 -2.44524e-05 0 0 -10.0318 0 0 0 
9.24072 -2.25242e-05 0 0 -9.24072 0 0 0 
15.0581 -3.67041e-05 -5.17828e-07 1.36909e-06 -15.0581 0 0 7467.58 
0 0 0 0 0 0 0 0 
0 0 0 0 0 0 0 0 
0 0 0 0 0 0 0 0 
10.0739 -2.39256e-05 0 0 -10.0739 0 0 0 
0 0 0 0 0 0 0 0 
2.55074 -6.05804e-06 1.37102e-06 -2.73433e-07 -2.55074 0 0 4767.47 
14.5085 -3.44578e-05 0 0 -14.5085 0 0 0 
0 0 0 0 0 0 0 0 
0 0 0 0 0 0 0 0 
19.702 -4.80236e-05 0 0 -19.702 0 0 0 
0 0 0 0 0 0 0 0 
14.9752 -3.55661e-05 1.32952e-06 -2.96056e-06 -14.9752 0 0 14283.5 
6.34558 -1.50707e-05 0 0 -6.34558 0 0 0 
0 0 0 0 0 0 0 0 
0 0 0 0 0 0 0 0 
16.4044 -3.89605e-05 -8.0223e-07 1.3855e-07 -16.4044 0 0 8377.16 
0 0 0 0 0 0 0 0 
14.5897 -3.46508e-05 0 0 -14.5897 0 0 0 
10.7445 -2.55183e-05 0 0 -10.7445 0 0 0 
0 0 0 0 0 0 0 0 
0 0 0 0 0 0 0 0 
10.5618 -2.50844e-05 0 0 -10.5618 0 0 0 
9.56929 -2.27271e-05 0 0 -9.56929 0 0 0 
16.2959 -3.87026e-05 0 0 -16.2959 0 0 0 
10.532 -2.50135e-05 0 0 -10.532 0 0 0 
0 0 0 0 0 0 0 0 
0 0 0 0 0 0 0 0 
9.84973 -2.33932e-05 0 0 -9.84973 0 0 0 
5.8413 -1.38732e-05 7.09324e-07 4.41426e-07 -5.8413 0 0 9802.88 
0 0 0 0 0 0 0 0 
0 0 0 0 0 0 0 0 
39.6405 -9.41463e-05 0 0 -39.6405 0 0 0 
0 0 0 0 0 0 0 0 
0 0 0 0 0 0 0 0 
0 0 0 0 0 0 0 0 
10.0522 -2.45024e-05 0 0 -10.0522 0 0 0 
0 0 0 0 0 0 0 0 
17.2424 -4.09509e-05 0 0 -17.2424 0 0 0 
7.91762 -1.88044e-05 0 0 -7.91762 0 0 0 
0 0 0 0 0 0 0 0 
0 0 0 0 0 0 0 0 
0 0 0 0 0 0 0 0 
0 0 0 0 0 0 0 0 
0 0 0 0 0 0 0 0 
0 0 0 0 0 0 0 0 
0 0 0 0 0 0 0 0 
0 0 0 0 0 0 0 0 
0 0 0 0 0 0 0 0 
10.0147 -2.37848e-05 0 0 -10.0147 0 0 0 
0 0 0 0 0 0 0 0 
0 0 0 0 0 0 0 0 
21.3296 -5.06578e-05 0 0 -21.3296 0 0 0 
19.6889 -4.67611e-05 0 0 -19.6889 0 0 0 
0 0 0 0 0 0 0 0 
0 0 0 0 0 0 0 0 
0 0 0 0 0 0 0 0 
0 0 0 0 0 0 0 0 
5.60417 -1.33099e-05 -3.35041e-06 5.1001e-07 -5.60417 0 0 10134.9 
0 0 0 0 0 0 0 0 
0 0 0 0 0 0 0 0 
0 0 0 0 0 0 0 0 
0 0 0 0 0 0 0 0 
35.2807 -8.37919e-05 2.00153e-07 -3.14555e-07 -35.2807 0 0 7802.74 
16.8904 -4.01147e-05 0 0 -16.8904 0 0 0 
6.18395 -1.46869e-05 4.62476e-07 -1.35479e-06 -6.18395 0 0 11444.1 
0 0 0 0 0 0 0 0 
0 0 0 0 0 0 0 0 
21.289 -5.05615e-05 0 0 -21.289 0 0 0 
3.60055 -8.55133e-06 0 0 -3.60055 0 0 0 
9.70208 -2.30425e-05 0 0 -9.70208 0 0 0 
5.41077 -1.28506e-05 -1.46487e-06 8.33415e-07 -5.41077 0 0 8746.37 
0 0 0 0 0 0 0 0 
0 0 0 0 0 0 0 0 
2.2578 -5.36228e-06 5.15818e-07 3.421e-07 -2.2578 0 0 2040.66 
0 0 0 0 0 0 0 0 
0 0 0 0 0 0 0 0 
0 0 0 0 0 0 0 0 
30.0769 -7.14329e-05 0 0 -30.0769 0 0 0 
0 0 0 0 0 0 0 0 
0 0 0 0 0 0 0 0 
4.11179 -1.00225e-05 -2.39427e-06 2.46981e-06 -4.11179 0 0 6863.83 
0 0 0 0 0 0 0 0 
0 0 0 0 0 0 0 0 
10.5278 -2.50036e-05 -2.34907e-08 -7.91042e-08 -10.5278 0 0 2823.49 
0 0 0 0 0 0 0 0 
0 0 0 0 0 0 0 0 
10.3214 -2.45134e-05 0 0 -10.3214 0 0 0 
0 0 0 0 0 0 0 0 
0 0 0 0 0 0 0 0 
0 0 0 0 0 0 0 0 
15.4892 -3.7755e-05 0 0 -15.4892 0 0 0 
6.91809 -1.64305e-05 0 0 -6.91809 0 0 0 
5.96882 -1.4176e-05 2.3224e-06 6.4321e-07 -5.96882 0 0 9408.64 
0 0 0 0 0 0 0 0 
0 0 0 0 0 0 0 0 
9.78127 -2.32306e-05 0 0 -9.78127 0 0 0 
0 0 0 0 0 0 0 0 
9.50932 -2.25846e-05 0 0 -9.50932 0 0 0 
0 0 0 0 0 0 0 0 
0 0 0 0 0 0 0 0 
0 0 0 0 0 0 0 0 
0 0 0 0 0 0 0 0 
24.2598 -5.7617e-05 -8.34952e-07 1.37319e-06 -24.2598 0 0 9140.02 
5.68071 -1.34917e-05 -1.36349e-06 -7.70129e-07 -5.68071 0 0 10241.4 
0 0 0 0 0 0 0 0 
0 0 0 0 0 0 0 0 
0 0 0 0 0 0 0 0 
8.656 -2.0558e-05 0 0 -8.656 0 0 0 
15.6677 -3.72108e-05 -8.75343e-08 -1.03906e-06 -15.6677 0 0 8438.19 
10.1831 -2.41851e-05 0 0 -10.1831 0 0 0 
10.0946 -2.39748e-05 0 0 -10.0946 0 0 0 
198.383 -2.4798e-05 0 0 -198.383 0 0 0 
0 0 0 0 0 0 0 0 
5.12526 -1.21725e-05 9.27684e-07 -6.48105e-07 -5.12526 0 0 7493.51 
10.0285 -2.38177e-05 0 0 -10.0285 0 0 0 
0 0 0 0 0 0 0 0 
25.5454 -6.06706e-05 -5.09217e-07 -1.09442e-06 -25.5454 0 0 6804.99 
0 0 0 0 0 0 0 0 
0 0 0 0 0 0 0 0 
0 0 0 0 0 0 0 0 
0 0 0 0 0 0 0 0 
9.70145 -2.30409e-05 0 0 -9.70145 0 0 0 
5.49449 -1.30494e-05 3.65104e-07 7.48449e-07 -5.49449 0 0 9033.83 
0 0 0 0 0 0 0 0 
0 0 0 0 0 0 0 0 
6.69727 -1.59061e-05 0 0 -6.69727 0 0 0 
29.9458 -7.11215e-05 0 0 -29.9458 0 0 0 
0 0 0 0 0 0 0 0 
0 0 0 0 0 0 0 0 
0 0 0 0 0 0 0 0 
0 0 0 0 0 0 0 0 
13.6803 -3.24906e-05 -5.1878e-07 1.08336e-06 -13.6803 0 0 5566.45 
10.9878 -2.60959e-05 0 0 -10.9878 0 0 0 
0 0 0 0 0 0 0 0 
0 0 0 0 0 0 0 0 
7.38746 -1.75453e-05 0 0 -7.38746 0 0 0 
9.82126 -2.33255e-05 0 0 -9.82126 0 0 0 
0 0 0 0 0 0 0 0 
9.36414 -2.22399e-05 0 0 -9.36414 0 0 0 
116.616 -1.4577e-05 -5.65838e-07 -1.00211e-06 -116.616 0 0 190187 
0 0 0 0 0 0 0 0 
11.229 -2.6669e-05 -6.01435e-07 -1.97122e-06 -11.229 0 0 17104 
0 0 0 0 0 0 0 0 
0 0 0 0 0 0 0 0 
9.67666 -2.29821e-05 0 0 -9.67666 0 0 0 
0 0 0 0 0 0 0 0 
0 0 0 0 0 0 0 0 
6.99938 -1.66235e-05 0 0 -6.99938 0 0 0 
6.90209 -1.63924e-05 0 0 -6.90209 0 0 0 
0 0 0 0 0 0 0 0 
10.5796 -2.51266e-05 0 0 -10.5796 0 0 0 
0 0 0 0 0 0 0 0 
0 0 0 0 0 0 0 0 
25.0174 -5.94164e-05 0 0 -25.0174 0 0 0 
19.2174 -4.56414e-05 0 0 -19.2174 0 0 0 
0 0 0 0 0 0 0 0 
0 0 0 0 0 0 0 0 
9.542 -2.26623e-05 0 0 -9.542 0 0 0 
29.263 -6.94998e-05 7.32749e-07 -1.2407e-06 -29.263 0 0 9152.37 
0 0 0 0 0 0 0 0 
0 0 0 0 0 0 0 0 
10.5213 -2.4988e-05 0 0 -10.5213 0 0 0 
9.58571 -2.27661e-05 0 0 -9.58571 0 0 0 
0 0 0 0 0 0 0 0 
0 0 0 0 0 0 0 0 
0 0 0 0 0 0 0 0 
11.1668 -2.65212e-05 -1.96668e-06 -1.00477e-06 -11.1668 0 0 13341.8 
0 0 0 0 0 0 0 0 
0 0 0 0 0 0 0 0 
20.0509 -4.88745e-05 0 0 -20.0509 0 0 0 
0 0 0 0 0 0 0 0 
9.75618 -0.00480911 1.33814e-05 -1.68728e-05 -9.75618 0 0 2235.94 
8.37173 -0.000408122 -1.96856e-06 -6.33634e-07 -8.37173 0 0 294.869 
9.6723 -2.41808e-05 0 0 -9.6723 0 0 0 
8.71518 -0.000413971 1.90121e-07 3.30495e-06 -8.71518 0 0 1258.21 
8.79685 -2.19922e-05 0 0 -8.79685 0 0 0 
7.93727 -0.00037702 2.79542e-06 -2.8446e-06 -7.93727 0 0 773.937 
10.5269 -2.63173e-05 -1.02824e-07 -5.65926e-07 -10.5269 0 0 7379.48 
9.12978 -0.000433664 1.41234e-06 1.14198e-06 -9.12978 0 0 883.32 
28.7279 -7.18197e-05 0 0 -28.7279 0 0 0 
9.93082 -0.000471714 6.65347e-06 1.07358e-06 -9.93082 0 0 1223.21 
4.21255 -1.05314e-05 0 0 -4.21255 0 0 0 
10.3737 -0.000492752 5.73044e-07 2.45394e-06 -10.3737 0 0 2980.72 
0 0 0 0 0 0 0 0 
7.38451 -0.000350764 8.73179e-07 6.20084e-07 -7.38451 0 0 393.371 
18.6639 -4.666e-05 0 0 -18.6639 0 0 1.69952e-11 
6.567 -0.000320141 2.79059e-06 -6.56468e-07 -6.567 0 0 2030.35 
8.99367 -0.00392448 -4.54912e-06 -9.76447e-06 -8.99367 0 0 1474.9 
7.27094 -0.000506864 -3.53893e-06 2.75261e-06 -7.27094 0 0 484.253 
10.9971 -0.000945748 -1.98185e-06 8.24989e-07 -10.9971 0 0 2614.91 
13.8794 -0.00119363 -2.20363e-06 -2.32879e-06 -13.8794 0 0 1807.54 
9.16532 -0.000446809 -2.76462e-06 -3.83296e-07 -9.16532 0 0 1671.69 
9.91001 -2.47751e-05 0 0 -9.91001 0 0 0 
10.5461 -0.000500939 -3.05335e-07 -7.55421e-07 -10.5461 0 0 3331.3 
3.35686 -8.39216e-06 0 0 -3.35686 0 0 0 
6.77253 -0.000321695 1.38748e-06 2.77512e-06 -6.77253 0 0 1416.68 
5.21033 -1.30259e-05 7.60408e-07 -9.06245e-07 -5.21033 0 0 5192.99 
13.3402 -0.000633659 -8.23347e-10 -2.49318e-06 -13.3402 0 0 2303.51 
18.2286 -4.55715e-05 0 0 -18.2286 0 0 0 
7.58014 -0.000360057 7.17458e-07 1.55404e-06 -7.58014 0 0 444.448 
6.71079 -1.6777e-05 -6.86099e-07 3.56232e-07 -6.71079 0 0 7444.98 
14.2497 -0.000676859 4.14634e-06 -4.50772e-06 -14.2497 0 0 2445.89 
9.74237 -2.43559e-05 0 0 -9.74237 0 0 0 
7.52049 -0.000357223 -3.22376e-06 4.93648e-06 -7.52049 0 0 1615.1 
8.11478 -2.02871e-05 0 0 -8.11478 0 0 7.15585e-12 
7.55734 -0.00036842 1.77117e-06 9.22551e-07 -7.55734 0 0 1252.91 
9.06581 -0.000441958 1.00324e-05 -4.06702e-06 -9.06581 0 0 1347.83 
9.97571 -0.00491731 5.80743e-06 2.00024e-06 -9.97571 0 0 2372.89 
11.661 -0.00100285 6.10252e-06 -5.0791e-06 -11.661 0 0 1720.8 
8.66535 -0.000745221 2.119e-06 2.14887e-06 -8.66535 0 0 1142.27 
7.41651 -9.74689e-05 1.75165e-06 1.98311e-07 -7.41651 0 0 4615.41 
7.11034 -0.000346629 6.76876e-07 -4.67351e-07 -7.11034 0 0 1611.71 
0 0 0 0 0 0 0 0 
7.60998 -0.000361474 -2.31855e-06 -3.0698e-07 -7.60998 0 0 3666.83 
5.2024 -1.3006e-05 -1.03233e-06 1.50774e-07 -5.2024 0 0 8187.09 
8.44873 -0.000401315 -1.57186e-06 -2.83388e-07 -8.44873 0 0 3071.89 
0 0 0 0 0 0 0 0 
5.47348 -0.00025999 9.15251e-10 -2.08792e-06 -5.47348 0 0 562.432 
10.6557 -2.66393e-05 0 0 -10.6557 0 0 0 
13.7791 -0.000654505 -1.41949e-06 -7.60148e-07 -13.7791 0 0 393.719 
13.4163 -3.35407e-05 -2.11377e-06 2.20006e-06 -13.4163 0 0 6815.74 
12.4076 -0.000589359 -4.96477e-06 2.51988e-07 -12.4076 0 0 3550.49 
5.35194 -1.33798e-05 0 0 -5.35194 0 0 0 
11.4142 -0.000542174 1.49325e-08 -1.42573e-06 -11.4142 0 0 2547.47 
0 0 0 0 0 0 0 0 
6.33378 -0.000308772 -6.06445e-06 2.79135e-06 -6.33378 0 0 938.725 
8.84121 -0.00435809 2.65396e-06 7.77995e-06 -8.84121 0 0 1660.6 
9.70577 -2.42645e-05 0 0 -9.70577 0 0 0 
9.61544 -0.000456734 -2.53227e-06 6.47786e-07 -9.61544 0 0 1535.92 
9.25949 -2.31488e-05 0 0 -9.25949 0 0 0 
8.89084 -0.000422315 -2.56851e-06 1.63318e-06 -8.89084 0 0 1237.46 
26.4606 -6.61516e-05 5.82536e-07 2.14315e-07 -26.4606 0 0 7595.9 
9.9779 -0.00047395 4.87998e-06 -2.8839e-06 -9.9779 0 0 2672.91 
9.20984 -2.30246e-05 0 0 -9.20984 0 0 0 
11.5787 -0.000549988 -3.04095e-06 -3.42702e-06 -11.5787 0 0 3071.86 
18.8325 -4.70813e-05 0 0 -18.8325 0 0 0 
6.59 -0.000313025 6.56599e-06 2.02358e-07 -6.59 0 0 1734.58 
5.25686 -1.31421e-05 -1.43842e-06 -7.39797e-07 -5.25686 0 0 9589.32 
7.73445 -0.000367386 1.02293e-06 1.53805e-06 -7.73445 0 0 1228.54 
16.5457 -4.13645e-05 0 0 -16.5457 0 0 1.43117e-11 
6.9417 -0.000338408 2.31828e-06 -3.52253e-06 -6.9417 0 0 1418.39 
0.130364 -2.4752e-05 7.6263e-05 -2.98177e-06 0 0.130364 0 70.8139 
0.242369 -1.06098e-05 7.08929e-05 -1.31211e-06 0 0.242369 0 77.4132 
0.213314 -2.0598e-06 6.23943e-05 5.98548e-07 0 0.213314 0 34.5705 
0 0 0 0 0 0 0 0 
0 0 0 0 0 0 0 0 
2.32275 5.51654e-06 0 0 2.32275 0 0 0 
0 0 0 0 0 0 0 0 
0 0 0 0 0 0 0 0 
0 0 0 0 0 0 0 0 
0 0 0 0 0 0 0 0 
0 0 0 0 0 0 0 0 
0 0 0 0 0 0 0 0 
0 0 0 0 0 0 0 0 
0 0 0 0 0 0 0 0 
0 0 0 0 0 0 0 0 
0 0 0 0 0 0 0 0 
0 0 0 0 0 0 0 0 
0 0 0 0 0 0 0 0 
0 0 0 0 0 0 0 0 
0 0 0 0 0 0 0 0 
0 0 0 0 0 0 0 0 
0 0 0 0 0 0 0 0 
0 0 0 0 0 0 0 0 
0 0 0 0 0 0 0 0 
0 0 0 0 0 0 0 0 
0 0 0 0 0 0 0 0 
0 0 0 0 0 0 0 0 
0 0 0 0 0 0 0 0 
5.17271 1.22852e-05 -3.863e-07 -8.77089e-07 5.17271 0 0 7404.92 
0 0 0 0 0 0 0 0 
0 0 0 0 0 0 0 0 
0 0 0 0 0 0 0 0 
0 0 0 0 0 0 0 0 
0 0 0 0 0 0 0 0 
0 0 0 0 0 0 0 0 
0 0 0 0 0 0 0 0 
0 0 0 0 0 0 0 0 
0 0 0 0 0 0 0 0 
4.14303 1.06165e-05 0 0 4.14303 0 0 0 
0 0 0 0 0 0 0 0 
0 0 0 0 0 0 0 0 
0 0 0 0 0 0 0 0 
0 0 0 0 0 0 0 0 
0 0 0 0 0 0 0 0 
0 0 0 0 0 0 0 0 
0 0 0 0 0 0 0 0 
0 0 0 0 0 0 0 0 
0 0 0 0 0 0 0 0 
0 0 0 0 0 0 0 0 
0 0 0 0 0 0 0 0 
0 0 0 0 0 0 0 0 
0 0 0 0 0 0 0 0 
0 0 0 0 0 0 0 0 
0 0 0 0 0 0 0 0 
0 0 0 0 0 0 0 0 
0 0 0 0 0 0 0 0 
0 0 0 0 0 0 0 0 
0 0 0 0 0 0 0 0 
0 0 0 0 0 0 0 0 
0 0 0 0 0 0 0 0 
0 0 0 0 0 0 0 0 
0 0 0 0 0 0 0 0 
0 0 0 0 0 0 0 0 
0 0 0 0 0 0 0 0 
0 0 0 0 0 0 0 0 
0 0 0 0 0 0 0 0 
0 0 0 0 0 0 0 0 
0 0 0 0 0 0 0 0 
1.45514 3.45594e-06 0 0 1.45514 0 0 0 
0 0 0 0 0 0 0 0 
0 0 0 0 0 0 0 0 
0 0 0 0 0 0 0 0 
0 0 0 0 0 0 0 0 
0 0 0 0 0 0 0 0 
0 0 0 0 0 0 0 0 
0 0 0 0 0 0 0 0 
0 0 0 0 0 0 0 0 
0 0 0 0 0 0 0 0 
0 0 0 0 0 0 0 0 
0 0 0 0 0 0 0 0 
0 0 0 0 0 0 0 0 
0 0 0 0 0 0 0 0 
0 0 0 0 0 0 0 0 
0 0 0 0 0 0 0 0 
0 0 0 0 0 0 0 0 
28.7443 3.59304e-06 0 0 28.7443 0 0 0 
0 0 0 0 0 0 0 0 
0 0 0 0 0 0 0 0 
6.03586 1.43352e-05 0 0 6.03586 0 0 0 
0 0 0 0 0 0 0 0 
0 0 0 0 0 0 0 0 
0 0 0 0 0 0 0 0 
0 0 0 0 0 0 0 0 
0 0 0 0 0 0 0 0 
1.75769 4.17453e-06 0 0 1.75769 0 0 0 
0 0 0 0 0 0 0 0 
0 0 0 0 0 0 0 0 
0 0 0 0 0 0 0 0 
0 0 0 0 0 0 0 0 
0 0 0 0 0 0 0 0 
0 0 0 0 0 0 0 0 
0 0 0 0 0 0 0 0 
0 0 0 0 0 0 0 0 
0 0 0 0 0 0 0 0 
0 0 0 0 0 0 0 0 
0 0 0 0 0 0 0 0 
0 0 0 0 0 0 0 0 
1.85853 4.41399e-06 -3.00947e-06 3.11279e-06 1.85853 0 0 3284.07 
0 0 0 0 0 0 0 0 
0 0 0 0 0 0 0 0 
0 0 0 0 0 0 0 0 
0 0 0 0 0 0 0 0 
0 0 0 0 0 0 0 0 
0 0 0 0 0 0 0 0 
0 0 0 0 0 0 0 0 
0 0 0 0 0 0 0 0 
0 0 0 0 0 0 0 0 
0 0 0 0 0 0 0 0 
0 0 0 0 0 0 0 0 
0 0 0 0 0 0 0 0 
0 0 0 0 0 0 0 0 
3.65873 8.68951e-06 0 0 3.65873 0 0 0 
0 0 0 0 0 0 0 0 
0 0 0 0 0 0 0 0 
0 0 0 0 0 0 0 0 
0 0 0 0 0 0 0 0 
0 0 0 0 0 0 0 0 
0 0 0 0 0 0 0 0 
0 0 0 0 0 0 0 0 
0 0 0 0 0 0 0 0 
0 0 0 0 0 0 0 0 
0 0 0 0 0 0 0 0 
0 0 0 0 0 0 0 0 
0 0 0 0 0 0 0 0 
0 0 0 0 0 0 0 0 
0 0 0 0 0 0 0 0 
0 0 0 0 0 0 0 0 
11.0914 2.63421e-05 0 0 11.0914 0 0 0 
0 0 0 0 0 0 0 0 
0 0 0 0 0 0 0 0 
0 0 0 0 0 0 0 0 
0 0 0 0 0 0 0 0 
6.82342 1.62056e-05 0 0 6.82342 0 0 0 
0 0 0 0 0 0 0 0 
0 0 0 0 0 0 0 0 
0 0 0 0 0 0 0 0 
0 0 0 0 0 0 0 0 
0 0 0 0 0 0 0 0 
0 0 0 0 0 0 0 0 
0 0 0 0 0 0 0 0 
0 0 0 0 0 0 0 0 
0 0 0 0 0 0 0 0 
0 0 0 0 0 0 0 0 
0 0 0 0 0 0 0 0 
0 0 0 0 0 0 0 0 
0 0 0 0 0 0 0 0 
0 0 0 0 0 0 0 0 
0 0 0 0 0 0 0 0 
0 0 0 0 0 0 0 0 
0 0 0 0 0 0 0 0 
0 0 0 0 0 0 0 0 
0 0 0 0 0 0 0 0 
0 0 0 0 0 0 0 0 
0 0 0 0 0 0 0 0 
0 0 0 0 0 0 0 0 
0 0 0 0 0 0 0 0 
0 0 0 0 0 0 0 0 
0 0 0 0 0 0 0 0 
2.41935 5.74597e-06 0 0 2.41935 0 0 0 
0 0 0 0 0 0 0 0 
0 0 0 0 0 0 0 0 
0 0 0 0 0 0 0 0 
0 0 0 0 0 0 0 0 
0 0 0 0 0 0 0 0 
0 0 0 0 0 0 0 0 
0 0 0 0 0 0 0 0 
0 0 0 0 0 0 0 0 
0 0 0 0 0 0 0 0 
0 0 0 0 0 0 0 0 
0 0 0 0 0 0 0 0 
0 0 0 0 0 0 0 0 
0 0 0 0 0 0 0 0 
0 0 0 0 0 0 0 0 
0 0 0 0 0 0 0 0 
0 0 0 0 0 0 0 0 
0 0 0 0 0 0 0 0 
0 0 0 0 0 0 0 0 
0 0 0 0 0 0 0 0 
0 0 0 0 0 0 0 0 
0 0 0 0 0 0 0 0 
0 0 0 0 0 0 0 0 
0 0 0 0 0 0 0 0 
0 0 0 0 0 0 0 0 
0 0 0 0 0 0 0 0 
0 0 0 0 0 0 0 0 
0 0 0 0 0 0 0 0 
0 0 0 0 0 0 0 0 
0 0 0 0 0 0 0 0 
0 0 0 0 0 0 0 0 
0 0 0 0 0 0 0 0 
0 0 0 0 0 0 0 0 
0 0 0 0 0 0 0 0 
0 0 0 0 0 0 0 0 
0 0 0 0 0 0 0 0 
0 0 0 0 0 0 0 0 
0 0 0 0 0 0 0 0 
0 0 0 0 0 0 0 0 
0 0 0 0 0 0 0 0 
0 0 0 0 0 0 0 0 
0 0 0 0 0 0 0 0 
0 0 0 0 0 0 0 0 
0 0 0 0 0 0 0 0 
0 0 0 0 0 0 0 0 
0 0 0 0 0 0 0 0 
0 0 0 0 0 0 0 0 
0 0 0 0 0 0 0 0 
0 0 0 0 0 0 0 0 
0 0 0 0 0 0 0 0 
0 0 0 0 0 0 0 0 
0 0 0 0 0 0 0 0 
0 0 0 0 0 0 0 0 
0 0 0 0 0 0 0 0 
0 0 0 0 0 0 0 0 
0 0 0 0 0 0 0 0 
0 0 0 0 0 0 0 0 
0 0 0 0 0 0 0 0 
0 0 0 0 0 0 0 0 
0 0 0 0 0 0 0 0 
0 0 0 0 0 0 0 0 
0 0 0 0 0 0 0 0 
0 0 0 0 0 0 0 0 
1.69116 4.1222e-06 0 0 1.69116 0 0 0 
0 0 0 0 0 0 0 0 
4.63841 1.10163e-05 0 0 4.63841 0 0 0 
0 0 0 0 0 0 0 0 
0.845315 2.06046e-06 0 0 0.845315 0 0 0 
0 0 0 0 0 0 0 0 
0 0 0 0 0 0 0 0 
3.09573 7.35241e-06 0 0 3.09573 0 0 0 
0 0 0 0 0 0 0 0 
0 0 0 0 0 0 0 0 
0 0 0 0 0 0 0 0 
0 0 0 0 0 0 0 0 
0 0 0 0 0 0 0 0 
0 0 0 0 0 0 0 0 
0 0 0 0 0 0 0 0 
0 0 0 0 0 0 0 0 
0 0 0 0 0 0 0 0 
0 0 0 0 0 0 0 0 
0 0 0 0 0 0 0 0 
9.40248 2.23309e-05 0 0 9.40248 0 0 0 
0 0 0 0 0 0 0 0 
0 0 0 0 0 0 0 0 
0 0 0 0 0 0 0 0 
0 0 0 0 0 0 0 0 
0 0 0 0 0 0 0 0 
0 0 0 0 0 0 0 0 
0 0 0 0 0 0 0 0 
0 0 0 0 0 0 0 0 
0 0 0 0 0 0 0 0 
0 0 0 0 0 0 0 0 
1.80186 4.39205e-06 0 0 1.80186 0 0 0 
0 0 0 0 0 0 0 0 
0 0 0 0 0 0 0 0 
0 0 0 0 0 0 0 0 
0 0 0 0 0 0 0 0 
0 0 0 0 0 0 0 0 
0 0 0 0 0 0 0 0 
0 0 0 0 0 0 0 0 
0 0 0 0 0 0 0 0 
0 0 0 0 0 0 0 0 
0 0 0 0 0 0 0 0 
0 0 0 0 0 0 0 0 
0 0 0 0 0 0 0 0 
0 0 0 0 0 0 0 0 
0 0 0 0 0 0 0 0 
0 0 0 0 0 0 0 0 
0 0 0 0 0 0 0 0 
0 0 0 0 0 0 0 0 
0 0 0 0 0 0 0 0 
0 0 0 0 0 0 0 0 
0 0 0 0 0 0 0 0 
0 0 0 0 0 0 0 0 
0 0 0 0 0 0 0 0 
0 0 0 0 0 0 0 0 
0.495936 1.20885e-06 0 0 0.495936 0 0 0 
0 0 0 0 0 0 0 0 
0 0 0 0 0 0 0 0 
0 0 0 0 0 0 0 0 
0 0 0 0 0 0 0 0 
0 0 0 0 0 0 0 0 
0 0 0 0 0 0 0 0 
0 0 0 0 0 0 0 0 
0 0 0 0 0 0 0 0 
0 0 0 0 0 0 0 0 
2.69523 6.40121e-06 4.21488e-06 1.13328e-06 2.69523 0 0 3046.04 
0 0 0 0 0 0 0 0 
0.298091 7.26597e-07 0 0 0.298091 0 0 0 
0 0 0 0 0 0 0 0 
0 0 0 0 0 0 0 0 
0 0 0 0 0 0 0 0 
0 0 0 0 0 0 0 0 
0 0 0 0 0 0 0 0 
0 0 0 0 0 0 0 0 
0 0 0 0 0 0 0 0 
0 0 0 0 0 0 0 0 
0 0 0 0 0 0 0 0 
0 0 0 0 0 0 0 0 
0 0 0 0 0 0 0 0 
0 0 0 0 0 0 0 0 
0 0 0 0 0 0 0 0 
0 0 0 0 0 0 0 0 
0 0 0 0 0 0 0 0 
0 0 0 0 0 0 0 0 
0 0 0 0 0 0 0 0 
0 0 0 0 0 0 0 0 
0 0 0 0 0 0 0 0 
0 0 0 0 0 0 0 0 
0 0 0 0 0 0 0 0 
0 0 0 0 0 0 0 0 
0 0 0 0 0 0 0 0 
0 0 0 0 0 0 0 0 
10.0626 2.45276e-05 0 0 10.0626 0 0 0 
0 0 0 0 0 0 0 0 
0 0 0 0 0 0 0 0 
0 0 0 0 0 0 0 0 
0 0 0 0 0 0 0 0 
0 0 0 0 0 0 0 0 
0 0 0 0 0 0 0 0 
0.170764 -1.66361e-05 -9.98969e-05 -5.52502e-07 0 -0.170764 0 50.3857 
0.178804 -1.34961e-07 -0.0001046 -8.00015e-07 0 -0.178804 0 -0.520477 
2.48002 -0.000322301 0.000287806 -0.000299495 -1.24001 1.5187 -1.5187 670.295 
2.15953 -0.000316154 0.000245165 -0.00023726 -1.07977 1.32243 -1.32245 967.465 
0.0471 -0.000401496 0.000417751 0.000441511 0 0.0333047 0.0333047 55.8483 
0.0426993 -0.000926374 0.000850952 0.000879107 1.01291e-09 0.030193 0.030193 58.0171 
0.0373799 -0.000179419 0.000156524 0.000171336 0 0.0264316 0.0264316 56.722 
0.056555 -0.000408342 0.000836328 -3.92517e-06 0 0.056555 0 52.305 
0.0417963 -0.000347611 0.000618078 -1.02395e-05 0 0.0417963 0 44.7314 
0.0408166 -0.000252364 -1.10139e-05 0.000603591 0 0 0.0408166 31.1428 
0.0406741 -0.000445499 1.11661e-05 0.000601484 0 0 0.0406741 56.9519 
0.0495485 -0.000957331 0.000977012 0.00103056 0 0.0350361 0.0350361 59.0892 
0.043481 -0.000285295 0.00040113 0.00039211 -6.34758e-10 0.0307457 0.0307457 39.6083 
0.0381449 -0.000121426 0.000170352 0.000164218 0 0.0269725 0.0269725 37.3272 
2.2197 -0.000296586 -0.00026231 0.000256718 -1.10985 -1.35928 1.35928 720.565 
2.41571 -0.000330569 -0.000278746 0.000279759 -1.20785 -1.47931 1.47932 944.797 
0.0433885 -0.000719692 -0.000872058 -0.000885922 0 -0.0306803 -0.0306803 43.9211 
0.0382096 -0.000368984 -0.000342804 -0.000354268 2.01305e-09 -0.0270183 -0.0270183 49.6812 
0.0369513 -0.00012909 -0.000163974 -0.000160127 0 -0.0261285 -0.0261285 34.3959 
0.0520409 -0.000345208 -0.000769575 1.17187e-05 0 -0.0520409 0 42.7129 
0.0397587 -0.000487578 -0.000587946 1.26644e-05 0 -0.0397587 0 59.9731 
0.0466095 -0.000386348 -1.2912e-05 -0.000689256 0 0 -0.0466095 48.0544 
0.0438732 -0.000422362 -5.78874e-06 -0.000648791 0 0 -0.0438732 51.3009 
0.0570791 -0.000297686 -0.000531822 -0.000509493 0 -0.040361 -0.040361 43.591 
0.0442477 -0.00078842 -0.000906966 -0.000885827 -2.90847e-10 -0.0312878 -0.0312878 49.4947 
0.0405092 -0.000196431 -0.000171648 -0.00018366 0 -0.0286443 -0.0286443 57.9849 
0.257126 -3.50913e-05 2.24006e-06 -0.000150419 0 0 -0.257126 141.661 
0.273675 -1.30935e-05 -2.24592e-06 -0.0001601 0 0 -0.273675 63.7296 
0.228398 -1.37151e-05 -0.000130187 -3.71107e-06 0 -0.228398 0 42.1497 
0.401868 -4.07924e-05 -0.000229065 7.72605e-06 0 -0.401868 0 120.735 
0.255433 -2.96699e-05 -4.77111e-06 0.000149428 0 0 0.255433 95.5234 
0.296588 -3.3487e-05 2.75793e-06 0.000173504 0 0 0.296588 157.815 
0.386541 -3.12026e-05 0.000220328 9.28895e-07 0 0.386541 0 111.762 
0.252598 -3.32185e-05 0.000143981 -4.41218e-06 0 0.252598 0 96.5637 
0.163006 3.10723e-06 9.29133e-05 -8.10549e-06 0 0.163006 0 12.3723 
0.184916 -2.39507e-05 0.000105402 -1.07774e-06 0 0.184916 0 70.3679 
0.134933 -1.01772e-05 -6.90298e-06 -7.69121e-05 0 0 -0.134933 54.0134 
0.0785162 -1.87969e-05 3.61507e-06 -4.47542e-05 0 0 -0.0785162 66.915 
0.137575 -2.20292e-05 -7.84175e-05 6.14666e-06 0 -0.137575 0 77.6878 
0.163561 -3.34543e-06 -9.32299e-05 -6.71894e-06 0 -0.163561 0 75.5126 
0.168685 -5.25822e-06 -5.43471e-06 9.61505e-05 0 -3.30729e-08 0.168685 22.2488 
0.0628795 -2.06628e-05 -3.89344e-06 3.58413e-05 0 -1.23284e-08 0.0628795 80.8995 
0.223712 -1.60255e-05 0.000127516 4.7785e-08 0 0.223712 0 40.4127 
0.197261 -2.94304e-05 0.000112439 9.72441e-07 0 0.197261 0 125.558 
0.214642 -6.1885e-05 2.28257e-06 -0.000122346 0 0 -0.214642 191.726 
0.158932 1.34864e-06 -1.61201e-06 -9.05914e-05 0 0 -0.158932 19.2153 
0.179817 -2.47655e-05 -0.000102496 1.32953e-05 0 -0.179817 0 197.352 
0.243104 -6.4751e-05 -0.000138569 -7.40236e-06 0 -0.243104 0 224.414 
0.211631 -6.83859e-06 1.78153e-06 0.00012063 0 0 0.211631 19.6084 
0.1794 -1.67307e-05 -4.45418e-06 0.000102258 0 0 0.1794 57.9486 
0.264705 -1.56513e-05 -0.000150882 2.99222e-06 0 -0.264705 0 54.6533 
0.180971 -4.34335e-05 -0.000103153 3.36569e-06 0 -0.180971 0 159.592 
0.324013 -4.23551e-05 -3.23645e-06 0.000184687 0 0 0.324013 127.416 
0.259039 -2.59345e-05 -8.05626e-07 0.000147652 0 0 0.259039 86.6495 
0.256412 -4.66397e-07 0.000146155 -1.26681e-06 0 0.256412 0 -2.1731 
0.192631 -4.79727e-05 0.0001098 -8.60852e-06 0 0.192631 0 156.159 
0.231075 -2.7276e-05 8.22114e-06 -0.000131713 0 0 -0.231075 99.2674 
0.389229 -4.22204e-05 -5.55631e-06 -0.00022186 0 0 -0.389229 109.287 
0.266764 -5.67419e-05 0.000152056 -2.18739e-06 0 0.266764 0 181.341 
0.376953 -1.99026e-05 0.000214863 3.93931e-06 0 0.376953 0 45.0818 
0.236359 -4.87368e-05 2.28281e-05 -0.000134725 0 0 -0.236359 151.097 
0.264575 -2.04179e-06 2.67826e-06 -0.000150808 0 0 -0.264575 7.5068 
0.346578 -1.72526e-05 -0.00019755 -3.37139e-06 0 -0.346578 0 64.2709 
0.352329 -5.56263e-05 -0.000200828 5.19358e-06 0 -0.352329 0 152.887 
0.276506 -2.35265e-05 1.1266e-05 0.000157609 0 0 0.276506 74.638 
0.220634 -2.46598e-05 -7.46662e-07 0.000125761 0 0 0.220634 78.2629 
0.254191 -3.02044e-05 0.000144889 2.28386e-06 0 0.254191 0 97.1851 
0.324057 -4.19408e-05 0.000184713 1.27425e-05 0 0.324057 0 150.152 
0.240285 -6.25201e-05 1.33993e-05 -0.000136962 0 0 -0.240285 217.558 
0.321241 -2.25509e-05 5.07556e-06 -0.000183108 0 0 -0.321241 85.9828 
0.291721 -6.42236e-06 -0.000166281 -8.53141e-06 0 -0.291721 0 59.2606 
0.343179 -2.0272e-05 -0.000195612 7.79287e-06 0 -0.343179 0 77.5936 
0.269032 -2.26966e-05 -5.52407e-06 0.000153348 0 0 0.269032 77.2764 
0.28846 -3.05611e-06 4.39283e-06 0.000164422 0 0 0.28846 21.5057 
0.258231 -3.03706e-05 1.13429e-05 -0.000147192 0 0 -0.258231 141.382 
0.129203 -2.76038e-06 -4.42534e-07 -7.36455e-05 0 0 -0.129203 -1.37538 
0.146357 -5.07921e-05 -8.34234e-05 6.24592e-06 0 -0.146357 0 143.57 
0.161849 -1.45122e-05 -9.22542e-05 2.47181e-06 0 -0.161849 0 41.7879 
0.196428 -2.48588e-05 6.57234e-06 0.000111964 0 0 0.196428 98.1566 
0.195335 -6.17337e-06 1.73721e-06 0.000111341 0 0 0.195335 39.5102 
0.175613 -1.2927e-05 0.0001001 3.9541e-06 0 0.175613 0 42.9513 
0.104219 -1.4413e-05 5.94046e-05 -3.35207e-06 0 0.104219 0 48.7116 
0.225245 -3.54006e-05 0.00012839 -7.33673e-07 0 0.225245 0 87.8147 
0.209839 -6.27111e-05 0.000119608 1.02297e-05 0 0.209839 0 170.753 
0.199694 1.457e-06 2.04195e-07 -0.000113826 0 0 -0.199694 15.4106 
0.253442 8.76431e-07 -1.90691e-06 -0.000144462 0 0 -0.253442 3.01073 
0.272968 -1.05877e-05 -0.000155592 4.57519e-06 0 -0.272968 0 39.0128 
0.124309 -5.66565e-05 -7.0856e-05 9.77031e-08 0 -0.124309 0 154.778 
0.294671 -2.82395e-05 -7.2856e-06 0.000167963 0 0 0.294671 102.023 
0.20223 -2.91039e-05 -7.44502e-07 0.000115271 0 0 0.20223 75.5383 
0.320641 -1.3151e-05 -1.18696e-05 -0.000182765 0 0 -0.320641 85.2294 
0.31871 -2.31553e-05 3.72421e-07 -0.000181665 0 0 -0.31871 78.6072 
0.431434 -2.1231e-05 -0.000245917 2.73897e-06 0 -0.431434 0 83.9248 
0.147848 -2.05209e-05 -8.42735e-05 4.03991e-07 0 -0.147848 0 66.1806 
0.388247 -8.2275e-07 1.73769e-06 0.000221301 0 0 0.388247 16.5572 
0.22681 -2.65218e-05 -2.94226e-07 0.000129282 0 0 0.22681 100.253 
0.345342 -3.79551e-05 0.000196845 -2.91644e-06 0 0.345342 6.77089e-08 125.817 
0.227869 -8.98603e-06 0.000129885 -2.427e-06 0 0.227869 4.46767e-08 5.94639 
0.228646 -1.44771e-05 -5.97124e-06 -0.000130328 0 0 -0.228646 67.7362 
0.1922 -3.24288e-05 6.85143e-06 -0.000109554 0 0 -0.1922 86.5163 
0.207058 -1.71803e-05 -0.000118023 -5.17037e-06 0 -0.207058 -4.05986e-08 66.1642 
0.273275 -1.85036e-05 -0.000155766 2.29409e-06 0 -0.273275 -5.35819e-08 67.9891 
0.238372 -2.8027e-06 6.73347e-06 0.000135872 0 0 0.238372 12.2908 
0.216133 -7.26031e-06 2.81869e-07 0.000123196 0 0 0.216133 21.4758 
0.238983 -2.32824e-05 0.000136221 -2.72222e-06 0 0.238983 0 62.8475 
0.251269 -1.95955e-05 0.000143223 8.56555e-06 0 0.251269 0 80.4569 
0.172668 -2.67463e-05 -3.31857e-06 0.000101011 0 0 0.172668 86.8628 
0.266807 -1.04547e-05 -2.01525e-06 0.000156082 0 0 0.266807 51.2826 
0.280254 -2.4689e-05 0.000159745 -8.95133e-07 0 0.280254 0 69.3026 
0.252149 -1.31066e-05 0.000143725 -5.1127e-07 0 0.252149 0 31.7699 
0.165356 -1.31032e-05 1.04654e-05 -9.67335e-05 0 0 -0.165356 24.3082 
0.279443 -2.81049e-05 3.65878e-06 -0.000163474 0 0 -0.279443 144.363 
0.208262 -2.0302e-05 -0.000118709 -4.89798e-07 0 -0.208262 0 64.0434 
0.307772 -1.99954e-05 -0.00017543 8.80604e-07 0 -0.307772 0 84.9132 