ITEM: TIMESTEP
290
ITEM: NUMBER OF SURFS
6916
ITEM: BOX BOUNDS oo rr rr
-20 20
-20 20
-20 20
ITEM: SURFS f_save[1] f_save[2] f_save[3] f_save[4] f_save[5] f_save[6] f_save[7] f_save[8] 
2.96684e-18 -2.22605e-19 0 0 -2.96684e-18 0 0 0 
2.66602e-19 0 0 -8.0008e-19 0 0 -2.66602e-19 0 
1.26867e-21 9.51831e-23 0 0 1.26867e-21 0 0 2.54489e-34 
1.46264e-18 -3.56519e-20 0 0 -1.46264e-18 0 0 1.35529e-30 
1.44159e-18 -1.80198e-21 0 0 -1.44159e-18 0 0 0 
1.3675e-18 -1.70938e-21 0 0 -1.3675e-18 0 0 0 
1.59974e-18 -1.99967e-21 0 0 -1.59974e-18 0 0 0 
1.45173e-18 -3.53859e-20 0 0 -1.45173e-18 0 0 1.33872e-30 
1.44594e-18 -3.4341e-20 0 0 -1.44594e-18 0 0 0 
1.486e-18 -3.52924e-20 0 0 -1.486e-18 0 0 0 
1.52604e-18 -3.62435e-20 0 0 -1.52604e-18 0 0 0 
1.52399e-18 -3.61947e-20 0 0 -1.52399e-18 0 0 0 
1.50391e-18 -3.66578e-20 0 0 -1.50391e-18 0 0 0 
1.4734e-18 -3.49933e-20 0 0 -1.4734e-18 0 0 0 
1.4713e-18 -3.49433e-20 0 0 -1.4713e-18 0 0 0 
1.47615e-18 -3.59814e-20 0 0 -1.47615e-18 0 0 0 
1.48378e-18 -3.61671e-20 0 0 -1.48378e-18 0 0 1.36745e-30 
1.48447e-18 -3.52563e-20 0 0 -1.48447e-18 0 0 1.36961e-30 
1.4591e-18 -3.46538e-20 0 0 -1.4591e-18 0 0 0 
1.4938e-18 -3.64114e-20 0 0 -1.4938e-18 0 0 1.37742e-30 
1.46598e-18 -3.48169e-20 0 0 -1.46598e-18 0 0 0 
1.51341e-18 -3.59435e-20 0 0 -1.51341e-18 0 0 0 
1.45657e-18 -3.5504e-20 0 0 -1.45657e-18 0 0 0 
1.48482e-18 -3.52647e-20 0 0 -1.48482e-18 0 0 0 
1.54294e-18 -3.66448e-20 0 0 -1.54294e-18 0 0 0 
1.50732e-18 -3.57989e-20 0 0 -1.50732e-18 0 0 0 
1.53746e-18 -1.92183e-21 0 0 -1.53746e-18 0 0 0 
1.44275e-18 -3.42652e-20 0 0 -1.44275e-18 0 0 0 
1.46862e-18 -3.48798e-20 0 0 -1.46862e-18 0 0 0 
1.60136e-18 -2.0017e-21 0 0 -1.60136e-18 0 0 0 
1.39898e-18 -3.32258e-20 0 0 -1.39898e-18 0 0 0 
1.41993e-18 -3.37233e-20 0 0 -1.41993e-18 0 0 0 
1.65745e-18 -2.07182e-21 0 0 -1.65745e-18 0 0 0 
1.51281e-18 -3.68747e-20 0 0 -1.51281e-18 0 0 1.39222e-30 
1.48008e-18 -3.5152e-20 0 0 -1.48008e-18 0 0 0 
1.58946e-18 -1.98683e-21 0 0 -1.58946e-18 0 0 0 
1.44867e-18 -3.53113e-20 0 0 -1.44867e-18 0 0 1.33082e-30 
1.43413e-18 -3.40608e-20 0 0 -1.43413e-18 0 0 0 
1.47061e-18 -1.83827e-21 0 0 -1.47061e-18 0 0 0 
1.4236e-18 -3.38107e-20 0 0 -1.4236e-18 0 0 0 
1.44247e-18 -3.51602e-20 0 0 -1.44247e-18 0 0 0 
1.6884e-18 -2.11052e-21 0 0 -1.6884e-18 0 0 0 
1.45421e-18 -3.45377e-20 0 0 -1.45421e-18 0 0 0 
1.45835e-18 -3.55473e-20 0 0 -1.45835e-18 0 0 0 
1.45002e-18 -1.81252e-21 0 0 -1.45002e-18 0 0 0 
1.50746e-18 -3.58023e-20 0 0 -1.50746e-18 0 0 0 
1.45679e-18 -3.45988e-20 0 0 -1.45679e-18 0 0 0 
1.59753e-18 -1.99692e-21 0 0 -1.59753e-18 0 0 0 
1.30263e-18 -1.62831e-21 0 0 -1.30263e-18 0 0 0 
1.35969e-18 -1.69962e-21 0 0 -1.35969e-18 0 0 0 
1.469e-18 -3.48889e-20 0 0 -1.469e-18 0 0 1.3564e-30 
1.48553e-18 -3.52815e-20 0 0 -1.48553e-18 0 0 0 
1.46997e-18 -3.49119e-20 0 0 -1.46997e-18 0 0 1.35185e-30 
1.68875e-18 -2.11094e-21 0 0 -1.68875e-18 0 0 0 
1.47607e-18 -3.50565e-20 0 0 -1.47607e-18 0 0 0 
1.53065e-18 -3.6353e-20 0 0 -1.53065e-18 0 0 0 
1.55725e-18 -3.69847e-20 0 0 -1.55725e-18 0 0 0 
1.56079e-18 -1.95099e-21 0 0 -1.56079e-18 0 0 0 
1.52572e-18 -3.62357e-20 0 0 -1.52572e-18 0 0 0 
1.49347e-18 -3.54698e-20 0 0 -1.49347e-18 0 0 0 
1.50445e-18 -3.57308e-20 0 0 -1.50445e-18 0 0 0 
1.69293e-18 -2.11618e-21 0 0 -1.69293e-18 0 0 0 
1.48993e-18 -3.5386e-20 0 0 -1.48993e-18 0 0 0 
1.43279e-18 -3.49242e-20 0 0 -1.43279e-18 0 0 1.32392e-30 
1.53489e-18 -1.91863e-21 0 0 -1.53489e-18 0 0 0 
1.41602e-18 -3.36305e-20 0 0 -1.41602e-18 0 0 0 
1.50869e-18 -3.58315e-20 0 0 -1.50869e-18 0 0 0 
1.65805e-18 -2.07257e-21 0 0 -1.65805e-18 0 0 0 
1.46052e-18 -3.46874e-20 0 0 -1.46052e-18 0 0 0 
1.43602e-18 -3.41055e-20 0 0 -1.43602e-18 0 0 0 
1.45288e-18 -1.8161e-21 0 0 -1.45288e-18 0 0 0 
1.46876e-18 -3.48831e-20 0 0 -1.46876e-18 0 0 0 
1.42839e-18 -3.39244e-20 0 0 -1.42839e-18 0 0 0 
1.3903e-18 -1.73787e-21 0 0 -1.3903e-18 0 0 0 
1.66084e-18 -2.07606e-21 0 0 -1.66084e-18 0 0 0 
1.51838e-18 -3.60614e-20 0 0 -1.51838e-18 0 0 0 
1.49831e-18 -3.55849e-20 0 0 -1.49831e-18 0 0 0 
1.49376e-18 -1.86721e-21 0 0 -1.49376e-18 0 0 0 
1.4634e-18 -3.47557e-20 0 0 -1.4634e-18 0 0 0 
1.45993e-18 -3.46734e-20 0 0 -1.45993e-18 0 0 0 
1.48087e-18 -3.51708e-20 0 0 -1.48087e-18 0 0 0 
1.49358e-18 -3.54725e-20 0 0 -1.49358e-18 0 0 0 
1.51081e-18 -3.58818e-20 0 0 -1.51081e-18 0 0 0 
1.49253e-18 -3.63805e-20 0 0 -1.49253e-18 0 0 0 
1.45398e-18 -3.63497e-20 0 0 -1.45398e-18 0 0 0 
1.48073e-18 -3.70182e-20 0 0 -1.48073e-18 0 0 0 
1.4328e-18 -3.58199e-20 0 0 -1.4328e-18 0 0 0 
1.43673e-18 -3.59185e-20 0 0 -1.43673e-18 0 0 0 
1.47432e-18 -1.26792e-18 0 0 -1.47432e-18 0 0 1.3597e-30 
1.47621e-18 -7.01198e-19 0 0 -1.47621e-18 0 0 1.36025e-30 
1.4701e-18 -6.98297e-19 0 0 -1.4701e-18 0 0 0 
1.4669e-18 -6.9678e-19 0 0 -1.4669e-18 0 0 0 
1.47183e-18 -7.17518e-19 0 0 -1.47183e-18 0 0 0 
1.47935e-18 -1.27224e-18 0 0 -1.47935e-18 0 0 1.36367e-30 
1.48356e-18 -7.0469e-19 0 0 -1.48356e-18 0 0 0 
1.47631e-18 -7.01247e-19 0 0 -1.47631e-18 0 0 0 
1.47798e-18 -7.02038e-19 0 0 -1.47798e-18 0 0 0 
1.47804e-18 -7.20543e-19 0 0 -1.47804e-18 0 0 0 
1.48683e-18 -3.71708e-20 0 0 -1.48683e-18 0 0 1.36968e-30 
1.439e-18 -3.5975e-20 0 0 -1.439e-18 0 0 0 
1.51274e-18 -3.78186e-20 0 0 -1.51274e-18 0 0 1.39392e-30 
4.72354e-21 0 0 -2.76327e-20 0 0 -4.72354e-21 0 
2.36755e-20 2.95943e-23 0 0 2.36755e-20 0 0 0 
5.44239e-20 1.29257e-21 0 0 5.44239e-20 0 0 0 
9.51742e-21 1.18969e-23 0 0 9.51742e-21 0 0 0 
3.61662e-20 8.58947e-22 0 0 3.61662e-20 0 0 0 
8.12639e-20 1.93002e-21 0 0 8.12639e-20 0 0 0 
2.23191e-20 5.30078e-22 0 0 2.23191e-20 0 0 0 
6.57318e-20 1.56114e-21 0 0 6.57318e-20 0 0 0 
2.68464e-20 6.37602e-22 0 0 2.68464e-20 0 0 0 
7.63265e-20 1.81275e-21 0 0 7.63265e-20 0 0 0 
7.40855e-20 9.02917e-22 0 0 7.40855e-20 0 0 0 
2.29224e-20 5.44409e-22 0 0 2.29224e-20 0 0 2.09719e-32 
3.43058e-20 8.14764e-22 0 0 3.43058e-20 0 0 0 
2.95236e-20 7.01186e-22 0 0 2.95236e-20 0 0 0 
6.99138e-20 1.66045e-21 0 0 6.99138e-20 0 0 0 
3.39269e-20 8.05763e-22 0 0 3.39269e-20 0 0 0 
4.30249e-20 1.02184e-21 0 0 4.30249e-20 0 0 0 
6.03483e-20 1.43327e-21 0 0 6.03483e-20 0 0 0 
2.77277e-20 3.46597e-23 0 0 2.77277e-20 0 0 0 
4.96065e-20 1.17816e-21 0 0 4.96065e-20 0 0 0 
2.76816e-20 6.57438e-22 0 0 2.76816e-20 0 0 0 
3.18277e-20 3.97847e-23 0 0 3.18277e-20 0 0 0 
3.33785e-20 7.92739e-22 0 0 3.33785e-20 0 0 0 
4.36254e-20 1.0361e-21 0 0 4.36254e-20 0 0 0 
1.21063e-20 1.51329e-23 0 0 1.21063e-20 0 0 0 
2.05142e-20 4.87213e-22 0 0 2.05142e-20 0 0 0 
1.81071e-20 4.30043e-22 0 0 1.81071e-20 0 0 0 
4.5772e-20 5.72151e-23 0 0 4.5772e-20 0 0 0 
1.57016e-20 1.96271e-23 0 0 1.57016e-20 0 0 0 
2.90313e-20 6.89494e-22 0 0 2.90313e-20 0 0 0 
2.65582e-20 6.30756e-22 0 0 2.65582e-20 0 0 0 
4.93801e-20 1.17278e-21 0 0 4.93801e-20 0 0 0 
4.15066e-20 9.8578e-22 0 0 4.15066e-20 0 0 0 
0 0 0 0 0 0 0 0 
2.72072e-20 6.4617e-22 0 0 2.72072e-20 0 0 0 
2.59484e-20 6.16274e-22 0 0 2.59484e-20 0 0 0 
3.18596e-20 3.98246e-23 0 0 3.18596e-20 0 0 0 
5.83968e-20 7.29961e-23 0 0 5.83968e-20 0 0 0 
3.93005e-20 9.33387e-22 0 0 3.93005e-20 0 0 0 
4.0056e-20 9.5133e-22 0 0 4.0056e-20 0 0 0 
3.7536e-20 8.9148e-22 0 0 3.7536e-20 0 0 0 
1.48109e-20 1.85137e-23 0 0 1.48109e-20 0 0 0 
3.07061e-20 7.2927e-22 0 0 3.07061e-20 0 0 0 
3.61434e-20 8.58408e-22 0 0 3.61434e-20 0 0 0 
4.55923e-20 5.69903e-23 0 0 4.55923e-20 0 0 0 
7.30875e-20 1.73583e-21 0 0 7.30875e-20 0 0 0 
3.82999e-20 9.09621e-22 0 0 3.82999e-20 0 0 0 
5.56242e-20 1.32108e-21 0 0 5.56242e-20 0 0 0 
2.44109e-20 3.05137e-23 0 0 2.44109e-20 0 0 0 
1.19447e-20 2.91153e-22 0 0 1.19447e-20 0 0 0 
3.81929e-20 4.77413e-23 0 0 3.81929e-20 0 0 0 
3.63159e-20 8.85199e-22 0 0 3.63159e-20 0 0 3.31546e-32 
5.64075e-20 1.33968e-21 0 0 5.64075e-20 0 0 0 
5.62147e-20 1.37023e-21 0 0 5.62147e-20 0 0 0 
6.43609e-20 1.5688e-21 0 0 6.43609e-20 0 0 5.94978e-32 
4.35114e-20 1.0334e-21 0 0 4.35114e-20 0 0 0 
0 0 0 0 0 0 0 0 
1.7487e-20 4.26246e-22 0 0 1.7487e-20 0 0 0 
3.59496e-20 4.49374e-23 0 0 3.59496e-20 0 0 0 
3.90392e-20 4.87992e-23 0 0 3.90392e-20 0 0 0 
7.6478e-20 9.55978e-23 0 0 7.6478e-20 0 0 0 
6.71682e-20 8.39605e-23 0 0 6.71682e-20 0 0 0 
2.89305e-21 3.61633e-24 0 0 2.89305e-21 0 0 0 
4.66967e-21 5.83713e-24 0 0 4.66967e-21 0 0 0 
2.70686e-20 6.59799e-22 0 0 2.70686e-20 0 0 0 
4.83296e-20 1.14783e-21 0 0 4.83296e-20 0 0 0 
5.25679e-20 6.57101e-23 0 0 5.25679e-20 0 0 0 
4.47803e-20 1.09152e-21 0 0 4.47803e-20 0 0 0 
5.06309e-20 1.20249e-21 0 0 5.06309e-20 0 0 0 
3.77237e-20 4.71548e-23 0 0 3.77237e-20 0 0 0 
4.28319e-20 1.04403e-21 0 0 4.28319e-20 0 0 0 
2.00371e-20 4.75882e-22 0 0 2.00371e-20 0 0 1.80009e-32 
2.14422e-20 5.22655e-22 0 0 2.14422e-20 0 0 0 
1.68795e-20 4.00889e-22 0 0 1.68795e-20 0 0 1.48726e-32 
3.70308e-20 8.79486e-22 0 0 3.70308e-20 0 0 0 
7.41965e-20 1.76217e-21 0 0 7.41965e-20 0 0 0 
5.89714e-20 1.40058e-21 0 0 5.89714e-20 0 0 0 
2.46513e-20 5.85472e-22 0 0 2.46513e-20 0 0 0 
1.9382e-20 4.60325e-22 0 0 1.9382e-20 0 0 1.77562e-32 
4.82185e-20 1.17532e-21 0 0 4.82185e-20 0 0 4.3491e-32 
2.23953e-20 5.45889e-22 0 0 2.23953e-20 0 0 0 
1.14896e-19 7.18103e-23 0 0 1.14896e-19 0 0 0 
4.97883e-20 6.06795e-22 0 0 4.97883e-20 0 0 0 
3.70417e-19 -3.88935e-19 -4.76346e-19 -4.76346e-19 -1.85208e-19 -2.26833e-19 -2.26833e-19 -1.24808e-31 
4.1998e-21 0 0 -6.21061e-19 0 0 -4.1998e-21 0 
2.84158e-21 0 5.75666e-19 -5.75666e-19 0 2.0093e-21 -2.0093e-21 -1.48098e-34 
3.70129e-19 -3.88633e-19 4.75976e-19 4.75976e-19 -1.85065e-19 2.26657e-19 2.26657e-19 -1.25501e-31 
4.19225e-21 0 0 6.19944e-19 0 0 4.19225e-21 0 
3.19806e-21 0 -2.91717e-19 2.91717e-19 0 -2.26137e-21 2.26137e-21 1.96396e-34 
5.47365e-21 0 -3.20209e-20 0 0 -5.47365e-21 0 0 
5.44779e-21 0 3.18696e-20 0 0 5.44779e-21 0 0 
5.20131e-21 0 0 -2.96475e-20 0 0 -5.20131e-21 0 
5.36557e-21 0 0 3.05837e-20 0 0 5.36557e-21 0 
5.2782e-21 0 0 -3.00857e-20 0 0 -5.2782e-21 0 
5.367e-21 0 0 3.05919e-20 0 0 5.367e-21 0 
5.54373e-21 0 0 3.15992e-20 0 0 5.54373e-21 0 
5.49184e-21 0 0 -3.13035e-20 0 0 -5.49184e-21 0 
5.05182e-21 0 0 -2.87954e-20 0 0 -5.05182e-21 0 
4.97769e-21 0 0 2.83728e-20 0 0 4.97769e-21 0 
5.29868e-21 0 0 -3.02025e-20 0 0 -5.29868e-21 0 
5.2775e-21 0 0 3.00817e-20 0 0 5.2775e-21 0 
5.51529e-21 0 -3.14372e-20 0 0 -5.51529e-21 0 0 
5.2818e-21 0 3.01062e-20 0 0 5.2818e-21 0 0 
5.79401e-21 0 0 -3.30259e-20 0 0 -5.79401e-21 0 
5.91371e-21 0 0 3.37082e-20 0 0 5.91371e-21 0 
5.82624e-21 0 -3.32096e-20 0 0 -5.82624e-21 0 0 
5.76279e-21 0 3.28479e-20 0 0 5.76279e-21 0 0 
5.63225e-21 0 -3.21038e-20 0 0 -5.63225e-21 0 0 
5.66304e-21 0 3.22793e-20 0 0 5.66304e-21 0 0 
6.10921e-21 0 3.57389e-20 0 0 6.10921e-21 0 0 
6.11971e-21 0 -3.58003e-20 0 0 -6.11971e-21 0 0 
5.80961e-21 0 3.39862e-20 0 0 5.80961e-21 0 0 
5.73883e-21 0 -3.35721e-20 0 0 -5.73883e-21 0 0 
5.34021e-21 0 -3.04392e-20 0 0 -5.34021e-21 0 0 
5.16085e-21 0 2.94168e-20 0 0 5.16085e-21 0 0 
4.82465e-21 0 2.82242e-20 0 0 4.82465e-21 0 0 
4.95912e-21 0 -1.45054e-20 0 0 -4.95912e-21 0 0 
4.87507e-21 0 0 1.42596e-20 0 0 4.87507e-21 0 
6.81772e-21 0 0 -3.8861e-20 0 0 -6.81772e-21 0 
6.55163e-21 0 0 3.73443e-20 0 0 6.55163e-21 0 
5.60756e-21 0 0 3.28042e-20 0 0 5.60756e-21 0 
5.49896e-21 0 0 -3.21689e-20 0 0 -5.49896e-21 0 
5.43673e-21 0 -3.09894e-20 0 0 -5.43673e-21 0 0 
5.37003e-21 0 3.06092e-20 0 0 5.37003e-21 0 0 
5.77151e-21 0 -3.28976e-20 0 0 -5.77151e-21 0 0 
5.70538e-21 0 3.25207e-20 0 0 5.70538e-21 0 0 
5.44545e-21 0 0 3.1039e-20 0 0 5.44545e-21 0 
5.63243e-21 0 0 -3.21048e-20 0 0 -5.63243e-21 0 
5.91648e-21 0 -3.37239e-20 0 0 -5.91648e-21 0 0 
5.767e-21 0 3.28719e-20 0 0 5.767e-21 0 0 
5.55438e-21 0 0 3.16599e-20 0 0 5.55438e-21 0 
5.72942e-21 0 0 -3.26577e-20 0 0 -5.72942e-21 0 
5.13731e-21 0 -2.92826e-20 0 0 -5.13731e-21 0 0 
5.05244e-21 0 2.87989e-20 0 0 5.05244e-21 0 0 
6.09503e-21 0 0 3.47417e-20 0 0 6.09503e-21 0 
6.49553e-21 0 0 -3.70245e-20 0 0 -6.49553e-21 0 
5.87013e-21 0 3.34597e-20 0 0 5.87013e-21 0 0 
5.8855e-21 0 -3.35474e-20 0 0 -5.8855e-21 0 0 
5.43545e-21 0 3.0982e-20 0 0 5.43545e-21 0 0 
5.28418e-21 0 -3.01198e-20 0 0 -5.28418e-21 0 0 
5.97151e-21 0 0 -3.40376e-20 0 0 -5.97151e-21 0 
5.85459e-21 0 0 3.33711e-20 0 0 5.85459e-21 0 
5.91728e-21 0 0 3.37285e-20 0 0 5.91728e-21 0 
5.67189e-21 0 0 -3.23297e-20 0 0 -5.67189e-21 0 
6.70282e-21 0 0 3.82061e-20 0 0 6.70282e-21 0 
5.96079e-21 0 0 -3.39765e-20 0 0 -5.96079e-21 0 
5.7688e-21 0 -3.28822e-20 0 0 -5.7688e-21 0 0 
5.63052e-21 0 3.2094e-20 0 0 5.63052e-21 0 0 
5.48656e-21 0 -3.12734e-20 0 0 -5.48656e-21 0 0 
5.38439e-21 0 3.0691e-20 0 0 5.38439e-21 0 0 
4.61351e-21 0 2.6989e-20 0 0 4.61351e-21 0 0 
4.81828e-21 0 0 -2.81869e-20 0 0 -4.81828e-21 0 
5.34277e-21 0 -3.12552e-20 0 0 -5.34277e-21 0 0 
5.44658e-21 0 3.18625e-20 0 0 5.44658e-21 0 0 
5.91763e-21 0 3.46181e-20 0 0 5.91763e-21 0 0 
5.94383e-21 0 -3.47714e-20 0 0 -5.94383e-21 0 0 
5.38685e-21 0 0 -3.15131e-20 0 0 -5.38685e-21 0 
5.46313e-21 0 0 3.19593e-20 0 0 5.46313e-21 0 
5.71709e-21 0 0 3.3445e-20 0 0 5.71709e-21 0 
5.67381e-21 0 0 -3.31918e-20 0 0 -5.67381e-21 0 
6.11836e-21 0 -3.48746e-20 0 0 -6.11836e-21 0 0 
6.46724e-21 0 3.68633e-20 0 0 6.46724e-21 0 0 
5.9772e-21 0 0 -3.49666e-20 0 0 -5.9772e-21 0 
6.11788e-21 0 0 3.57896e-20 0 0 6.11788e-21 0 
4.66402e-21 0 -1.36423e-20 0 0 -4.66402e-21 0 0 
5.84697e-21 0 -3.42048e-20 0 0 -5.84697e-21 0 0 
5.7665e-21 0 3.3734e-20 0 0 5.7665e-21 0 0 
5.24637e-21 0 -3.06913e-20 0 0 -5.24637e-21 0 0 
5.27866e-21 0 3.08801e-20 0 0 5.27866e-21 0 0 
5.35147e-21 0 -3.05034e-20 0 0 -5.35147e-21 0 0 
5.59095e-21 0 3.18684e-20 0 0 5.59095e-21 0 0 
5.61607e-21 0 0 -3.2854e-20 0 0 -5.61607e-21 0 
5.59666e-21 0 0 3.27404e-20 0 0 5.59666e-21 0 
6.19271e-21 0 3.52984e-20 0 0 6.19271e-21 0 0 
6.10047e-21 0 -3.47727e-20 0 0 -6.10047e-21 0 0 
5.32039e-21 0 0 3.03262e-20 0 0 5.32039e-21 0 
5.26778e-21 0 0 -3.00263e-20 0 0 -5.26778e-21 0 
4.72301e-21 0 0 2.76296e-20 0 0 4.72301e-21 0 
4.85494e-21 0 1.42007e-20 0 0 4.85494e-21 0 0 
5.70963e-21 0 -3.25449e-20 0 0 -5.70963e-21 0 0 
5.45433e-21 0 3.10897e-20 0 0 5.45433e-21 0 0 
5.50403e-21 0 3.13729e-20 0 0 5.50403e-21 0 0 
5.58057e-21 0 -3.18092e-20 0 0 -5.58057e-21 0 0 
5.11307e-21 0 2.91445e-20 0 0 5.11307e-21 0 0 
5.27711e-21 0 -3.00795e-20 0 0 -5.27711e-21 0 0 
5.16525e-21 0 0 -2.94419e-20 0 0 -5.16525e-21 0 
5.22372e-21 0 0 2.97752e-20 0 0 5.22372e-21 0 
6.13388e-21 0 3.49631e-20 0 0 6.13388e-21 0 0 
5.85275e-21 0 -3.33607e-20 0 0 -5.85275e-21 0 0 
5.24536e-21 0 0 -2.98985e-20 0 0 -5.24536e-21 0 
5.30626e-21 0 0 3.02457e-20 0 0 5.30626e-21 0 
5.14347e-21 0 2.93177e-20 0 0 5.14347e-21 0 0 
5.27686e-21 0 -3.00781e-20 0 0 -5.27686e-21 0 0 
5.48529e-21 0 -3.12662e-20 0 0 -5.48529e-21 0 0 
5.27447e-21 0 3.00645e-20 0 0 5.27447e-21 0 0 
5.30674e-21 0 0 -3.02484e-20 0 0 -5.30674e-21 0 
5.19144e-21 0 0 2.95912e-20 0 0 5.19144e-21 0 
5.45472e-21 0 0 -3.10919e-20 0 0 -5.45472e-21 0 
5.45124e-21 0 0 3.10721e-20 0 0 5.45124e-21 0 
5.09284e-21 0 0 2.90292e-20 0 0 5.09284e-21 0 
5.24721e-21 0 0 -2.99091e-20 0 0 -5.24721e-21 0 
5.03148e-21 0 -2.86794e-20 0 0 -5.03148e-21 0 0 
5.03413e-21 0 2.86945e-20 0 0 5.03413e-21 0 0 
4.96707e-21 0 0 2.83123e-20 0 0 4.96707e-21 0 
5.09773e-21 0 0 -2.90571e-20 0 0 -5.09773e-21 0 
5.19893e-21 0 0 -2.96339e-20 0 0 -5.19893e-21 0 
5.47773e-21 0 0 3.12231e-20 0 0 5.47773e-21 0 
5.41803e-21 0 3.08828e-20 0 0 5.41803e-21 0 0 
5.38286e-21 0 -3.06823e-20 0 0 -5.38286e-21 0 0 
5.10016e-21 0 -2.90709e-20 0 0 -5.10016e-21 0 0 
5.13426e-21 0 2.92653e-20 0 0 5.13426e-21 0 0 
5.282e-21 0 0 3.01074e-20 0 0 5.282e-21 0 
5.3216e-21 0 0 -3.03331e-20 0 0 -5.3216e-21 0 
5.46898e-21 0 3.11732e-20 0 0 5.46898e-21 0 0 
5.5964e-21 0 -3.18995e-20 0 0 -5.5964e-21 0 0 
5.24468e-21 0 0 2.98947e-20 0 0 5.24468e-21 0 
5.23968e-21 0 0 -2.98662e-20 0 0 -5.23968e-21 0 
6.53156e-21 -8.85263e-24 0 -4.65374e-21 -1.24247e-23 0 -6.53155e-21 -2.49333e-34 
1.33597e-20 -1.63781e-22 -5.5032e-23 -2.4613e-21 -8.86809e-22 -2.97976e-22 -1.33269e-20 6.585e-34 
8.96865e-21 -6.42828e-23 -2.82784e-23 -1.65873e-21 -3.47261e-22 -1.52762e-22 -8.96062e-21 5.22444e-34 
1.59289e-20 -1.96162e-22 -1.31231e-22 -2.88258e-21 -1.08036e-21 -7.22756e-22 -1.58758e-20 -1.25501e-33 
6.91827e-21 -8.23357e-25 -2.47413e-27 -1.72957e-21 -3.29343e-24 -9.89651e-27 -6.91827e-21 -2.82912e-33 
7.73252e-21 -1.0955e-23 -5.7449e-23 -1.85733e-21 -4.55857e-23 -2.39056e-22 -7.72869e-21 1.03631e-34 
6.97847e-21 -1.23363e-23 -3.90339e-23 -1.12494e-21 -7.64766e-23 -2.41984e-22 -6.97386e-21 -5.89253e-34 
6.62664e-21 -2.16139e-23 -5.21248e-23 -1.19739e-21 -1.19484e-22 -2.88151e-22 -6.6193e-21 -2.93703e-34 
9.4452e-21 -6.67058e-23 -2.9781e-23 -1.74687e-21 -3.60358e-22 -1.60883e-22 -9.43695e-21 1.11891e-33 
8.28707e-21 -4.63281e-23 -7.83895e-23 -1.49038e-21 -2.57122e-22 -4.35063e-22 -8.27165e-21 -2.09402e-33 
1.00762e-20 -9.63028e-23 -7.36356e-23 -1.83114e-21 -5.28767e-22 -4.04309e-22 -1.00542e-20 6.95101e-34 
5.53578e-21 -8.62157e-24 -2.09695e-23 -1.8104e-21 -2.63607e-23 -6.4115e-23 -5.53535e-21 -2.75393e-34 
7.46779e-21 -2.16512e-23 -1.39243e-23 -1.23103e-21 -1.31314e-22 -8.44507e-23 -7.46616e-21 3.65023e-34 
9.68288e-21 -1.33099e-23 -4.59774e-23 -1.1602e-21 -1.10988e-22 -3.83395e-22 -9.67465e-21 -2.54051e-33 
6.71243e-21 -1.16471e-23 -1.89434e-23 -1.09621e-21 -7.13043e-23 -1.15972e-22 -6.71105e-21 8.38559e-34 
6.91345e-21 -2.19277e-24 0 -1.29627e-22 -1.16931e-22 0 -6.91246e-21 4.42679e-34 
7.04257e-21 -2.27594e-23 3.69311e-23 -1.28852e-21 -1.24324e-22 2.01737e-22 -7.03858e-21 -1.4851e-33 
6.80765e-21 -2.49467e-23 0 -2.42522e-21 -7.0022e-23 0 -6.80729e-21 5.19612e-34 
7.58929e-21 -9.67335e-25 2.4354e-23 -1.82826e-21 -4.01516e-24 1.01087e-22 -7.58862e-21 1.08367e-33 
7.06482e-21 -1.0009e-23 5.24884e-23 -1.69695e-21 -4.16494e-23 2.18414e-22 -7.06132e-21 -8.86048e-34 
1.07811e-20 -1.03161e-22 8.88207e-23 -1.951e-21 -5.68674e-22 4.89626e-22 -1.07549e-20 3.1118e-34 
8.10458e-21 -5.7312e-23 2.96139e-23 -1.49622e-21 -3.10153e-22 1.60261e-22 -8.09706e-21 -7.72701e-34 
1.0188e-20 -8.81538e-23 1.11679e-22 -1.82206e-21 -4.91414e-22 6.22555e-22 -1.01571e-20 2.14722e-33 
7.29844e-21 -3.65e-23 4.6025e-23 -1.33121e-21 -1.99919e-22 2.5209e-22 -7.29135e-21 -4.6833e-34 
8.0881e-21 -1.57435e-23 4.52406e-23 -1.30381e-21 -9.75979e-23 2.80457e-22 -8.08265e-21 2.00961e-33 
7.22746e-21 -1.25197e-23 1.34762e-23 -1.19141e-21 -7.59391e-23 8.17411e-23 -7.2266e-21 -1.51059e-34 
7.85031e-21 -7.33803e-23 0 -2.79667e-21 -2.05909e-22 0 -7.84761e-21 2.46569e-33 
6.56337e-21 -2.22765e-24 0 -4.6764e-21 -3.12653e-24 0 -6.56337e-21 7.14213e-34 
6.71895e-21 -1.10648e-23 3.94668e-23 -1.63422e-21 -4.54777e-23 1.62213e-22 -6.71684e-21 1.62069e-34 
1.2629e-20 -1.50269e-22 0 -2.30874e-21 -8.20251e-22 0 -1.26023e-20 -9.44789e-34 
7.26884e-21 -9.85191e-24 5.17905e-21 0 -1.38272e-23 7.26883e-21 0 -5.97701e-34 
1.41903e-20 -1.73964e-22 2.61432e-21 -5.84535e-23 -9.41944e-22 1.41555e-20 -3.16502e-22 1.52826e-34 
8.28861e-21 -5.94086e-23 1.53296e-21 -2.61342e-23 -3.2093e-22 8.28119e-21 -1.41179e-22 -3.47549e-34 
1.68098e-20 -2.0701e-22 3.042e-21 -1.38489e-22 -1.14011e-21 1.67538e-20 -7.62728e-22 -9.96696e-34 
5.75861e-21 -6.85343e-25 1.43965e-21 -2.05941e-27 -2.74137e-24 5.75861e-21 -8.23763e-27 9.72927e-34 
7.81805e-21 -1.10762e-23 1.87787e-21 -5.80845e-23 -4.609e-23 7.81418e-21 -2.41701e-22 4.09344e-34 
5.99672e-21 -1.06008e-23 9.66679e-22 -3.35425e-23 -6.57176e-23 5.99275e-21 -2.07941e-22 -4.27144e-34 
8.12295e-21 -2.64944e-23 1.46776e-21 -6.38946e-23 -1.46464e-22 8.11394e-21 -3.53216e-22 -5.32337e-34 
8.34513e-21 -5.89367e-23 1.54342e-21 -2.63124e-23 -3.18388e-22 8.33784e-21 -1.42145e-22 1.06733e-33 
1.00425e-20 -5.61416e-23 1.80609e-21 -9.49945e-23 -3.11587e-22 1.00238e-20 -5.27221e-22 -2.58239e-33 
1.10307e-20 -1.05425e-22 2.0046e-21 -8.06109e-23 -5.78856e-22 1.10066e-20 -4.42608e-22 3.55527e-34 
5.85028e-21 -9.11138e-24 1.91325e-21 -2.21608e-23 -2.78583e-23 5.84982e-21 -6.77575e-23 5.4571e-35 
6.27322e-21 -1.81878e-23 1.03411e-21 -1.16969e-23 -1.10308e-22 6.27185e-21 -7.09417e-23 5.00962e-34 
7.75362e-21 -1.0658e-23 9.29038e-22 -3.68166e-23 -8.88746e-23 7.74703e-21 -3.07006e-22 -2.96277e-33 
5.86863e-21 -1.0183e-23 9.58408e-22 -1.6562e-23 -6.23409e-23 5.86742e-21 -1.01394e-22 1.25276e-33 
5.07199e-21 -1.60871e-24 9.51e-23 0 -8.57853e-23 5.07127e-21 0 7.08286e-34 
6.9957e-21 -2.2608e-23 1.27995e-21 3.66854e-23 -1.23496e-22 6.99174e-21 2.00394e-22 -1.20169e-33 
6.44432e-21 -2.36153e-23 2.29579e-21 0 -6.62849e-23 6.44398e-21 0 1.56117e-34 
6.61218e-21 -8.42792e-25 1.59287e-21 2.12184e-23 -3.49821e-24 6.61159e-21 8.80722e-23 4.2899e-34 
7.69512e-21 -1.0902e-23 1.84834e-21 5.71712e-23 -4.53653e-23 7.69131e-21 2.379e-22 -1.87227e-33 
1.11759e-20 -1.06939e-22 2.02246e-21 9.20739e-23 -5.89503e-22 1.11488e-20 5.07559e-22 8.64896e-34 
7.84935e-21 -5.55071e-23 1.4491e-21 2.86813e-23 -3.00386e-22 7.84206e-21 1.55214e-22 2.8864e-33 
1.08942e-20 -9.42644e-23 1.94836e-21 1.1942e-22 -5.25477e-22 1.08611e-20 6.65709e-22 9.04702e-34 
9.03162e-21 -4.51678e-23 1.64733e-21 5.69547e-23 -2.47395e-22 9.02284e-21 3.11955e-22 -1.21402e-33 
8.8918e-21 -1.73079e-23 1.43337e-21 4.97361e-23 -1.07296e-22 8.88581e-21 3.08326e-22 1.94271e-33 
7.04577e-21 -1.22049e-23 1.16146e-21 1.31374e-23 -7.403e-23 7.04493e-21 7.96861e-23 -2.16518e-34 
7.95055e-21 -7.43173e-23 2.83238e-21 0 -2.08538e-22 7.94781e-21 0 2.37485e-33 
6.40984e-21 -2.17554e-24 4.56701e-21 0 -3.05339e-24 6.40984e-21 0 8.41211e-34 
6.75213e-21 -1.11195e-23 1.64229e-21 3.96617e-23 -4.57023e-23 6.75001e-21 1.63014e-22 -1.41597e-34 
1.42639e-20 -1.69723e-22 2.60762e-21 0 -9.26441e-22 1.42338e-20 0 -1.54519e-33 
6.5614e-21 -8.89308e-24 0 4.675e-21 -1.24815e-23 0 6.56139e-21 -4.39246e-34 
1.33824e-20 -1.6406e-22 5.51255e-23 2.46548e-21 -8.88316e-22 2.98482e-22 1.33496e-20 -4.60725e-34 
8.67848e-21 -6.2203e-23 2.73635e-23 1.60507e-21 -3.36026e-22 1.4782e-22 8.67071e-21 -2.21983e-34 
1.59358e-20 -1.96246e-22 1.31288e-22 2.88382e-21 -1.08083e-21 7.23068e-22 1.58826e-20 -3.06324e-34 
6.63603e-21 -7.89767e-25 2.37319e-27 1.65901e-21 -3.15907e-24 9.49277e-27 6.63602e-21 1.0244e-33 
7.39004e-21 -1.04698e-23 5.49046e-23 1.77507e-21 -4.35667e-23 2.28468e-22 7.38638e-21 4.49069e-34 
6.24842e-21 -1.10457e-23 3.49504e-23 1.00725e-21 -6.8476e-23 2.16669e-22 6.24429e-21 -4.37437e-34 
6.68508e-21 -2.18045e-23 5.25844e-23 1.20795e-21 -1.20538e-22 2.90692e-22 6.67767e-21 -1.21611e-34 
9.31184e-21 -6.57639e-23 2.93605e-23 1.72221e-21 -3.5527e-22 1.58611e-22 9.30371e-21 1.08303e-33 
7.9729e-21 -4.45717e-23 7.54177e-23 1.43388e-21 -2.47374e-22 4.18569e-22 7.95806e-21 -1.80837e-33 
1.03339e-20 -9.87658e-23 7.55189e-23 1.87798e-21 -5.42291e-22 4.1465e-22 1.03114e-20 -1.64089e-34 
6.4112e-21 -9.98497e-24 2.42856e-23 2.09669e-21 -3.05294e-23 7.4254e-23 6.4107e-21 -2.15746e-34 
7.17628e-21 -2.0806e-23 1.33808e-23 1.18297e-21 -1.26188e-22 8.11541e-23 7.17472e-21 5.08515e-34 
9.70865e-21 -1.33453e-23 4.60997e-23 1.16329e-21 -1.11284e-22 3.84415e-22 9.7004e-21 -2.67203e-33 
6.7584e-21 -1.17269e-23 1.90731e-23 1.10372e-21 -7.17926e-23 1.16766e-22 6.75701e-21 2.09894e-33 
5.162e-21 -1.63726e-24 0 9.67876e-23 -8.73077e-23 0 5.16126e-21 -4.86946e-34 
6.58636e-21 -2.12851e-23 -3.45388e-23 1.20505e-21 -1.1627e-22 -1.88668e-22 6.58263e-21 -1.08152e-33 
6.32806e-21 -2.31892e-23 0 2.25437e-21 -6.5089e-23 0 6.32772e-21 1.38641e-34 
7.59068e-21 -9.67512e-25 -2.43584e-23 1.82859e-21 -4.01589e-24 -1.01106e-22 7.59e-21 1.05611e-33 
7.05966e-21 -1.00017e-23 -5.245e-23 1.69571e-21 -4.1619e-23 -2.18254e-22 7.05616e-21 -1.56311e-33 
1.10401e-20 -1.05639e-22 -9.0955e-23 1.99788e-21 -5.82339e-22 -5.01391e-22 1.10133e-20 -1.64742e-34 
8.52172e-21 -6.02618e-23 -3.11381e-23 1.57323e-21 -3.26117e-22 -1.68509e-22 8.51381e-21 -1.01305e-33 
1.07197e-20 -9.27546e-23 -1.17508e-22 1.91715e-21 -5.17061e-22 -6.55047e-22 1.06872e-20 3.0149e-33 
8.14429e-21 -4.07302e-23 -5.13591e-23 1.48549e-21 -2.23089e-22 -2.81306e-22 8.13638e-21 -1.78238e-33 
7.6536e-21 -1.48978e-23 -4.28102e-23 1.23377e-21 -9.23548e-23 -2.65391e-22 7.64844e-21 1.47697e-33 
6.26284e-21 -1.08487e-23 -1.16776e-23 1.0324e-21 -6.58038e-23 -7.08314e-23 6.2621e-21 -1.81271e-34 
7.93184e-21 -7.41424e-23 0 2.82572e-21 -2.08047e-22 0 7.92911e-21 3.0364e-33 
6.79007e-21 -2.3046e-24 0 4.83793e-21 -3.23452e-24 0 6.79007e-21 5.75565e-34 
7.03847e-21 -1.1591e-23 -4.13436e-23 1.71193e-21 -4.76404e-23 -1.69927e-22 7.03626e-21 -1.36479e-34 
1.21628e-20 -1.44723e-22 0 2.22352e-21 -7.89976e-22 0 1.21372e-20 -8.70021e-34 
6.99612e-21 -9.48228e-24 -4.98474e-21 0 -1.33084e-23 -6.99611e-21 0 -2.83122e-34 
1.39135e-20 -1.7057e-22 -2.56332e-21 5.7313e-23 -9.23566e-22 -1.38793e-20 3.10327e-22 7.23676e-34 
7.56671e-21 -5.42344e-23 -1.39945e-21 2.3858e-23 -2.92979e-22 -7.55994e-21 1.28883e-22 -5.60562e-35 
1.75063e-20 -2.15588e-22 -3.16804e-21 1.44227e-22 -1.18735e-21 -1.74479e-20 7.9433e-22 -8.8011e-34 
5.66808e-21 -6.7457e-25 -1.41702e-21 2.02703e-27 -2.69828e-24 -5.66808e-21 8.10813e-27 9.49683e-34 
6.41696e-21 -9.09118e-24 -1.54133e-21 4.76751e-23 -3.78301e-23 -6.41378e-21 1.98385e-22 5.90698e-34 
7.34285e-21 -1.29804e-23 -1.18368e-21 4.10721e-23 -8.04698e-23 -7.338e-21 2.54619e-22 -8.77446e-34 
7.47546e-21 -2.43825e-23 -1.35077e-21 5.88015e-23 -1.34789e-22 -7.46717e-21 3.25061e-22 -1.35379e-34 
9.06278e-21 -6.4005e-23 -1.67614e-21 2.85752e-23 -3.45768e-22 -9.05486e-21 1.54369e-22 1.14806e-33 
1.0303e-20 -5.75978e-23 -1.85293e-21 9.74584e-23 -3.19669e-22 -1.02838e-20 5.40896e-22 -3.37715e-33 
1.07417e-20 -1.02663e-22 -1.95207e-21 7.84986e-23 -5.63688e-22 -1.07182e-20 4.3101e-22 1.25346e-34 
5.90917e-21 -9.2031e-24 -1.93251e-21 2.23839e-23 -2.81388e-23 -5.90871e-21 6.84396e-23 -2.04324e-34 
6.32215e-21 -1.83296e-23 -1.04217e-21 1.17882e-23 -1.11169e-22 -6.32077e-21 7.14951e-23 6.24315e-34 
9.85798e-21 -1.35506e-23 -1.18118e-21 4.68088e-23 -1.12996e-22 -9.8496e-21 3.90328e-22 -2.82086e-33 
5.53754e-21 -9.60851e-24 -9.04337e-22 1.56277e-23 -5.88238e-23 -5.5364e-21 9.56734e-23 6.55601e-34 
2.75154e-21 -8.72719e-25 -5.15915e-23 0 -4.65383e-23 -2.75115e-21 0 7.08286e-34 
6.90273e-21 -2.23075e-23 -1.26294e-21 -3.61978e-23 -1.21855e-22 -6.89882e-21 -1.97731e-22 -1.30598e-33 
5.82123e-21 -2.13319e-23 -2.07381e-21 0 -5.98759e-23 -5.82092e-21 0 4.7301e-34 
8.28362e-21 -1.05583e-24 -1.99552e-21 -2.65821e-23 -4.3825e-24 -8.28288e-21 -1.10335e-22 1.1457e-33 
7.00275e-21 -9.9211e-24 -1.68204e-21 -5.20272e-23 -4.12835e-23 -6.99928e-21 -2.16495e-22 -1.35757e-33 
1.33064e-20 -1.27325e-22 -2.408e-21 -1.09626e-22 -7.0188e-22 -1.32741e-20 -6.04315e-22 5.62869e-34 
7.89317e-21 -5.5817e-23 -1.45719e-21 -2.88414e-23 -3.02063e-22 -7.88584e-21 -1.5608e-22 2.34955e-33 
1.08435e-20 -9.38257e-23 -1.93929e-21 -1.18864e-22 -5.23032e-22 -1.08106e-20 -6.62611e-22 9.25527e-34 
9.65572e-21 -4.82889e-23 -1.76117e-21 -6.08903e-23 -2.6449e-22 -9.64633e-21 -3.33511e-22 -1.58914e-33 
7.70489e-21 -1.49976e-23 -1.24204e-21 -4.30971e-23 -9.29738e-23 -7.6997e-21 -2.67169e-22 1.88095e-33 
6.07692e-21 -1.05266e-23 -1.00175e-21 -1.13309e-23 -6.38503e-23 -6.07619e-21 -6.87286e-23 -6.92354e-34 
7.44232e-21 -6.95666e-23 -2.65132e-21 0 -1.95208e-22 -7.43976e-21 0 2.11279e-33 
6.73486e-21 -2.28586e-24 -4.79859e-21 0 -3.20822e-24 -6.73486e-21 0 5.67409e-34 
6.34296e-21 -1.04456e-23 -1.54277e-21 -3.72582e-23 -4.29328e-23 -6.34096e-21 -1.53136e-22 5.97098e-35 
1.29749e-20 -1.54385e-22 -2.37197e-21 0 -8.42716e-22 -1.29475e-20 0 -1.02182e-33 
5.28177e-20 0 -4.41204e-20 -4.41204e-20 0 -3.73478e-20 -3.73478e-20 2.61884e-32 
0 0 0 0 0 0 0 0 
0 0 0 0 0 0 0 0 
0 0 0 0 0 0 0 0 
0 0 0 0 0 0 0 0 
0 0 0 0 0 0 0 0 
0 0 0 0 0 0 0 0 
0 0 0 0 0 0 0 0 
0 0 0 0 0 0 0 0 
0 0 0 0 0 0 0 0 
0 0 0 0 0 0 0 0 
0 0 0 0 0 0 0 0 
0 0 0 0 0 0 0 0 
0 0 0 0 0 0 0 0 
0 0 0 0 0 0 0 0 
0 0 0 0 0 0 0 0 
0 0 0 0 0 0 0 0 
0 0 0 0 0 0 0 0 
0 0 0 0 0 0 0 0 
0 0 0 0 0 0 0 0 
0 0 0 0 0 0 0 0 
0 0 0 0 0 0 0 0 
0 0 0 0 0 0 0 0 
0 0 0 0 0 0 0 0 
0 0 0 0 0 0 0 0 
0 0 0 0 0 0 0 0 
0 0 0 0 0 0 0 0 
0 0 0 0 0 0 0 0 
0 0 0 0 0 0 0 0 
0 0 0 0 0 0 0 0 
0 0 0 0 0 0 0 0 
0 0 0 0 0 0 0 0 
0 0 0 0 0 0 0 0 
0 0 0 0 0 0 0 0 
0 0 0 0 0 0 0 0 
0 0 0 0 0 0 0 0 
0 0 0 0 0 0 0 0 
0 0 0 0 0 0 0 0 
0 0 0 0 0 0 0 0 
0 0 0 0 0 0 0 0 
0 0 0 0 0 0 0 0 
0 0 0 0 0 0 0 0 
0 0 0 0 0 0 0 0 
0 0 0 0 0 0 0 0 
0 0 0 0 0 0 0 0 
0 0 0 0 0 0 0 0 
0 0 0 0 0 0 0 0 
5.3908e-20 0 4.50311e-20 4.50311e-20 0 3.81187e-20 3.81187e-20 2.72315e-32 
5.7317e-20 -2.34545e-21 -3.55442e-22 -1.32363e-20 -9.99719e-21 -1.51502e-21 -5.64181e-20 -2.9533e-32 
6.20752e-20 -3.77028e-21 -1.37675e-21 -2.09075e-20 -1.09933e-20 -4.01432e-21 -6.0962e-20 -1.8166e-32 
4.80489e-20 -1.75832e-21 -3.0922e-22 -9.83387e-21 -8.45311e-21 -1.48657e-21 -4.72761e-20 -1.70211e-33 
9.88234e-20 -2.96834e-21 -2.36852e-21 -1.17351e-20 -2.37828e-20 -1.89769e-20 -9.4023e-20 -8.61665e-33 
1.07675e-19 -1.78499e-21 -1.05548e-21 -7.17799e-21 -2.57243e-20 -1.5211e-20 -1.03445e-19 -5.72455e-33 
1.11966e-19 -1.96882e-21 -7.79525e-22 -8.09281e-21 -2.63519e-20 -1.04336e-20 -1.08319e-19 1.22722e-32 
6.46434e-20 -1.05865e-21 -3.87317e-22 -4.77422e-21 -1.39506e-20 -5.10397e-21 -6.29135e-20 6.92464e-33 
4.84151e-20 -1.52041e-21 -4.2559e-22 -8.35169e-21 -8.66051e-21 -2.42422e-21 -4.75725e-20 2.08059e-34 
5.12154e-20 -1.78397e-21 -4.77579e-22 -9.6086e-21 -9.33793e-21 -2.49982e-21 -5.02948e-20 -6.63087e-33 
5.35031e-20 -1.7197e-21 -7.58529e-22 -9.14189e-21 -9.85837e-21 -4.34835e-21 -5.24069e-20 1.50143e-33 
5.91188e-20 -1.97116e-21 -9.95339e-22 -1.00632e-20 -1.13109e-20 -5.71145e-21 -5.77449e-20 -2.00068e-34 
1.6445e-19 -3.80816e-21 -3.35703e-21 -1.89237e-20 -3.19635e-20 -2.81769e-20 -1.58834e-19 5.03209e-32 
5.65553e-20 -2.12263e-21 -1.2269e-21 -1.06085e-20 -1.10254e-20 -6.37276e-21 -5.51029e-20 -2.9084e-33 
5.77814e-20 -1.25853e-21 -4.39315e-22 -6.19699e-21 -1.14722e-20 -4.00463e-21 -5.64893e-20 1.34243e-32 
6.08923e-20 -1.68481e-21 -9.08942e-22 -7.93882e-21 -1.25627e-20 -6.7775e-21 -5.91956e-20 -4.4258e-34 
8.72903e-20 -1.46703e-21 -6.95547e-22 -5.99046e-21 -2.06325e-20 -9.7823e-21 -8.42508e-20 -2.14358e-32 
6.71336e-20 -1.04488e-21 -4.59432e-22 -4.68857e-21 -1.45366e-20 -6.39171e-21 -6.52284e-20 -1.74276e-32 