ITEM: TIMESTEP
165
ITEM: NUMBER OF SURFS
6916
ITEM: BOX BOUNDS oo rr rr
-0.35 0.35
-0.25 0.25
-0.25 0.25
ITEM: SURFS f_save[1] f_save[2] f_save[3] f_save[4] f_save[5] f_save[6] f_save[7] f_save[8] 
9.61035 -7.21077e-05 0 0 -9.61035 0 0 0 
4.57608 -3.43349e-05 0 0 -4.57608 0 0 0 
0 0 0 0 0 0 0 0 
0.957174 -1.56357e-05 0.000287272 4.33445e-06 0 0.957174 0 134.65 
0.795248 -5.29057e-05 0.000238656 -1.31101e-05 0 0.795248 0 407.77 
0.891461 -3.28362e-05 -0.00026755 3.78431e-06 0 -0.891461 0 227.684 
1.08241 -3.33993e-05 -0.000324834 -2.89211e-06 0 -1.08241 0 233.509 
0 0 0 0 0 0 0 0 
0 0 0 0 0 0 0 0 
0 0 0 0 0 0 0 0 
0.262416 -4.93217e-05 7.48429e-07 0.000153513 0 0 0.262416 162.661 
0.276353 -7.58718e-06 8.56611e-08 0.000161666 0 0 0.276353 38.4642 
0 0 0 0 0 0 0 0 
8.50101 -2.07213e-05 0 0 -8.50101 0 0 0 
0 0 0 0 0 0 0 0 
84.7476 -1.05935e-05 -1.84533e-06 3.17247e-07 -84.7476 0 0 114794 
0 0 0 0 0 0 0 0 
0 0 0 0 0 0 0 0 
9.05833 -2.20797e-05 0 0 -9.05833 0 0 0 
26.0868 -6.35867e-05 -1.3322e-07 -7.53393e-07 -26.0868 0 0 6461.83 
0 0 0 0 0 0 0 0 
0 0 0 0 0 0 0 0 
7.95194 -1.88859e-05 0 0 -7.95194 0 0 0 
5.65651 -1.34342e-05 0 0 -5.65651 0 0 0 
0 0 0 0 0 0 0 0 
0 0 0 0 0 0 0 0 
0 0 0 0 0 0 0 0 
0 0 0 0 0 0 0 0 
11.6566 -2.84129e-05 0 0 -11.6566 0 0 0 
14.008 -3.41445e-05 0 0 -14.008 0 0 0 
0 0 0 0 0 0 0 0 
146.741 -1.83428e-05 0 0 -146.741 0 0 0 
10.1308 -2.40608e-05 1.33415e-06 -4.37035e-07 -10.1308 0 0 8059.59 
15.8997 -3.7762e-05 1.69328e-08 -1.44407e-06 -15.8997 0 0 5792.86 
25.3305 -6.01599e-05 -1.35534e-06 -1.96396e-06 -25.3305 0 0 12410.7 
0 0 0 0 0 0 0 0 
10.0202 -2.37979e-05 8.59386e-07 7.88914e-07 -10.0202 0 0 6779.07 
0 0 0 0 0 0 0 0 
7.78895 -1.84987e-05 0 0 -7.78895 0 0 0 
25.0188 -5.94194e-05 0 0 -25.0188 0 0 0 
14.3881 -3.41719e-05 0 0 -14.3881 0 0 0 
29.7219 -7.05895e-05 0 0 -29.7219 0 0 0 
22.2691 -5.28893e-05 -1.09908e-06 -1.75407e-06 -22.2691 0 0 7563.62 
25.0065 -5.93905e-05 3.9112e-06 1.4094e-06 -25.0065 0 0 3671.96 
4.50875 -1.07083e-05 -1.17746e-06 1.47109e-06 -4.50875 0 0 7123.41 
0 0 0 0 0 0 0 0 
17.6655 -4.30596e-05 -6.45558e-07 1.43023e-07 -17.6655 0 0 6613.73 
2.71636 -6.62111e-06 -8.49951e-07 -3.92634e-07 -2.71636 0 0 4868.68 
16.4191 -4.00215e-05 0 0 -16.4191 0 0 0 
10.4222 -2.54041e-05 0 0 -10.4222 0 0 0 
16.8966 -4.11856e-05 0 0 -16.8966 0 0 0 
5.05945 -1.23324e-05 0 0 -5.05945 0 0 0 
16.2407 -3.85716e-05 0 0 -16.2407 0 0 0 
0 0 0 0 0 0 0 0 
7.36378 -1.74891e-05 0 0 -7.36378 0 0 0 
0 0 0 0 0 0 0 0 
14.0144 -3.32842e-05 0 0 -14.0144 0 0 0 
0 0 0 0 0 0 0 0 
8.89541 -2.11266e-05 0 0 -8.89541 0 0 0 
26.5106 -6.29624e-05 0 0 -26.5106 0 0 0 
7.58807 -1.8496e-05 0 0 -7.58807 0 0 0 
7.29029 -1.77701e-05 0 0 -7.29029 0 0 0 
15.0238 -3.66206e-05 0 0 -15.0238 0 0 0 
16.946 -4.1306e-05 0 0 -16.946 0 0 0 
0 0 0 0 0 0 0 0 
0 0 0 0 0 0 0 0 
7.51049 -1.83069e-05 0 0 -7.51049 0 0 0 
3.3776 -8.23294e-06 6.99312e-07 6.48193e-07 -3.3776 0 0 4634.12 
17.214 -4.08834e-05 0 0 -17.214 0 0 0 
8.24174 -1.95742e-05 -1.56184e-06 -3.34652e-06 -8.24174 0 0 12386.5 
11.1149 -2.70927e-05 0 0 -11.1149 0 0 0 
5.39845 -1.31588e-05 0 0 -5.39845 0 0 0 
0 0 0 0 0 0 0 0 
8.60353 -2.04334e-05 0 0 -8.60353 0 0 0 
16.1917 -3.94673e-05 0 0 -16.1917 0 0 0 
8.24032 -2.00857e-05 -2.19465e-06 5.90127e-07 -8.24032 0 0 12449.8 
17.978 -4.38216e-05 9.16947e-07 1.39045e-06 -17.978 0 0 14243.7 
7.54987 -1.84028e-05 0 0 -7.54987 0 0 0 
3.33772 -7.92709e-06 0 0 -3.33772 0 0 0 
24.5484 -5.83025e-05 0 0 -24.5484 0 0 0 
0 0 0 0 0 0 0 0 
13.8059 -3.2789e-05 0 0 -13.8059 0 0 0 
16.6991 -3.96604e-05 0 0 -16.6991 0 0 0 
5.93886 -1.41048e-05 0 0 -5.93886 0 0 0 
7.74254 -1.83886e-05 0 0 -7.74254 0 0 0 
8.23588 -1.95602e-05 0 0 -8.23588 0 0 0 
15.6854 -3.72527e-05 0 0 -15.6854 0 0 0 
8.47805 -2.01353e-05 0 0 -8.47805 0 0 0 
0 0 0 0 0 0 0 0 
15.4084 -3.75581e-05 0 0 -15.4084 0 0 0 
3.07721 -7.50075e-06 0 0 -3.07721 0 0 0 
23.3586 -5.69369e-05 0 0 -23.3586 0 0 0 
0 0 0 0 0 0 0 0 
0 0 0 0 0 0 0 0 
23.3868 -5.70055e-05 0 0 -23.3868 0 0 0 
23.3279 -5.68619e-05 1.75984e-06 1.03515e-06 -23.3279 0 0 12980.7 
18.0351 -4.28335e-05 -9.14921e-08 -1.06017e-06 -18.0351 0 0 6433.21 
2.87833 -6.83605e-06 9.95042e-07 -4.54628e-07 -2.87833 0 0 3611.1 
0 0 0 0 0 0 0 0 
0 0 0 0 0 0 0 0 
8.39495 -1.9938e-05 0 0 -8.39495 0 0 0 
24.4496 -5.80678e-05 4.27134e-06 3.6605e-07 -24.4496 0 0 13157.2 
4.22412 -1.00323e-05 7.06796e-07 7.31338e-07 -4.22412 0 0 6514.65 
16.5672 -3.93472e-05 0 0 -16.5672 0 0 0 
0 0 0 0 0 0 0 0 
0 0 0 0 0 0 0 0 
15.0035 -3.56331e-05 3.04153e-06 2.418e-07 -15.0035 0 0 11942.1 
0 0 0 0 0 0 0 0 
5.01535 -1.19115e-05 0 0 -5.01535 0 0 0 
5.03874 -1.1967e-05 -8.04852e-07 -1.29536e-06 -5.03874 0 0 8162.76 
0 0 0 0 0 0 0 0 
0 0 0 0 0 0 0 0 
17.0513 -4.04967e-05 0 0 -17.0513 0 0 0 
8.69529 -2.06513e-05 0 0 -8.69529 0 0 0 
0 0 0 0 0 0 0 0 
1.85963 -4.41662e-06 7.24698e-06 -9.09048e-07 -1.85963 0 0 3657.61 
0 0 0 0 0 0 0 0 
0 0 0 0 0 0 0 0 
15.81 -3.75487e-05 0 0 -15.81 0 0 0 
7.91195 -1.87909e-05 0 0 -7.91195 0 0 0 
7.45603 -1.77081e-05 0 0 -7.45603 0 0 0 
9.08076 -2.15668e-05 -6.26955e-06 -2.28728e-06 -9.08076 0 0 4771.94 
0 0 0 0 0 0 0 0 
0 0 0 0 0 0 0 0 
4.30895 -1.02338e-05 -4.75475e-07 -1.42076e-06 -4.30895 0 0 6900.08 
5.92391 -1.40693e-05 0 0 -5.92391 0 0 0 
17.8175 -4.34301e-05 0 0 -17.8175 0 0 0 
8.25206 -2.01144e-05 0 0 -8.25206 0 0 0 
0 0 0 0 0 0 0 0 
0 0 0 0 0 0 0 0 
7.19174 -1.70804e-05 0 0 -7.19174 0 0 0 
0 0 0 0 0 0 0 0 
8.57992 -2.09136e-05 0 0 -8.57992 0 0 0 
14.0704 -3.42966e-05 0 0 -14.0704 0 0 0 
0 0 0 0 0 0 0 0 
0 0 0 0 0 0 0 0 
7.48628 -1.778e-05 0 0 -7.48628 0 0 0 
8.71573 -2.06999e-05 0 0 -8.71573 0 0 0 
0 0 0 0 0 0 0 0 
31.7865 -7.74795e-05 0 0 -31.7865 0 0 0 
0 0 0 0 0 0 0 0 
0 0 0 0 0 0 0 0 
13.0755 -3.10543e-05 4.40065e-08 2.17925e-07 -13.0755 0 0 7013.81 
8.62185 -2.04769e-05 0 0 -8.62185 0 0 0 
0 0 0 0 0 0 0 0 
11.8617 -2.89129e-05 -1.25451e-07 -1.9984e-06 -11.8617 0 0 7282.17 
0 0 0 0 0 0 0 0 
0 0 0 0 0 0 0 0 
6.73895 -1.60051e-05 0 0 -6.73895 0 0 0 
8.18561 -1.94409e-05 0 0 -8.18561 0 0 0 
30.8583 -7.52171e-05 0 0 -30.8583 0 0 0 
26.3674 -6.42705e-05 3.08485e-07 -6.43934e-07 -26.3674 0 0 7070.03 
0 0 0 0 0 0 0 0 
0 0 0 0 0 0 0 0 
0 0 0 0 0 0 0 0 
7.3802 -1.7528e-05 0 0 -7.3802 0 0 0 
7.82634 -1.85876e-05 0 0 -7.82634 0 0 0 
10.4173 -2.47411e-05 0 0 -10.4173 0 0 0 
0 0 0 0 0 0 0 0 
0 0 0 0 0 0 0 0 
8.2078 -2.00065e-05 0 0 -8.2078 0 0 0 
7.56059 -1.84289e-05 0 0 -7.56059 0 0 0 
12.3202 -3.00306e-05 -4.23677e-07 1.12017e-06 -12.3202 0 0 6109.84 
0 0 0 0 0 0 0 0 
0 0 0 0 0 0 0 0 
0 0 0 0 0 0 0 0 
8.24227 -1.95755e-05 0 0 -8.24227 0 0 0 
1.98441 -4.713e-06 -1.43723e-06 -2.56252e-06 -1.98441 0 0 1634.72 
2.08697 -4.95658e-06 1.12174e-06 -2.23718e-07 -2.08697 0 0 3900.66 
11.8706 -2.81928e-05 0 0 -11.8706 0 0 0 
0 0 0 0 0 0 0 0 
0 0 0 0 0 0 0 0 
16.1198 -3.9292e-05 0 0 -16.1198 0 0 0 
0 0 0 0 0 0 0 0 
20.9536 -4.97647e-05 1.08779e-06 -2.42227e-06 -20.9536 0 0 11686.5 
5.19184 -1.23306e-05 0 0 -5.19184 0 0 0 
0 0 0 0 0 0 0 0 
0 0 0 0 0 0 0 0 
22.121 -5.25374e-05 -6.5637e-07 1.13359e-07 -22.121 0 0 6854.04 
0 0 0 0 0 0 0 0 
16.5009 -3.91898e-05 1.63032e-06 -1.15171e-07 -16.5009 0 0 7829.98 
8.79094 -2.08786e-05 0 0 -8.79094 0 0 0 
0 0 0 0 0 0 0 0 
0 0 0 0 0 0 0 0 
8.6415 -2.05236e-05 0 0 -8.6415 0 0 0 
25.4774 -6.0509e-05 0 0 -25.4774 0 0 0 
13.333 -3.16658e-05 0 0 -13.333 0 0 0 
8.61709 -2.04656e-05 0 0 -8.61709 0 0 0 
0 0 0 0 0 0 0 0 
0 0 0 0 0 0 0 0 
8.05887 -1.91399e-05 0 0 -8.05887 0 0 0 
4.77925 -1.13508e-05 5.80356e-07 3.61167e-07 -4.77925 0 0 8020.54 
0 0 0 0 0 0 0 0 
0 0 0 0 0 0 0 0 
32.4331 -7.70288e-05 0 0 -32.4331 0 0 0 
0 0 0 0 0 0 0 0 
0 0 0 0 0 0 0 0 
0 0 0 0 0 0 0 0 
8.22456 -2.00474e-05 0 0 -8.22456 0 0 0 
0 0 0 0 0 0 0 0 
14.1075 -3.35053e-05 0 0 -14.1075 0 0 0 
22.9812 -5.45805e-05 0 0 -22.9812 0 0 0 
151.52 -1.894e-05 0 0 -151.52 0 0 0 
0 0 0 0 0 0 0 0 
0 0 0 0 0 0 0 0 
3.81849 -9.06891e-06 -1.76701e-06 -3.37388e-06 -3.81849 0 0 7609.39 
0 0 0 0 0 0 0 0 
0 0 0 0 0 0 0 0 
0 0 0 0 0 0 0 0 
0 0 0 0 0 0 0 0 
7.94502 -1.88695e-05 0 0 -7.94502 0 0 0 
12.7271 -3.02269e-05 0 0 -12.7271 0 0 0 
0 0 0 0 0 0 0 0 
0 0 0 0 0 0 0 0 
17.4515 -4.14473e-05 0 0 -17.4515 0 0 0 
16.1091 -3.82591e-05 0 0 -16.1091 0 0 0 
0 0 0 0 0 0 0 0 
0 0 0 0 0 0 0 0 
0 0 0 0 0 0 0 0 
0 0 0 0 0 0 0 0 
4.58523 -1.08899e-05 -2.74125e-06 4.17281e-07 -4.58523 0 0 8292.15 
0 0 0 0 0 0 0 0 
0 0 0 0 0 0 0 0 
0 0 0 0 0 0 0 0 
0 0 0 0 0 0 0 0 
28.8661 -6.8557e-05 1.63761e-07 -2.57363e-07 -28.8661 0 0 6384.06 
13.8194 -3.28211e-05 0 0 -13.8194 0 0 0 
5.0596 -1.20166e-05 3.7839e-07 -1.10846e-06 -5.0596 0 0 9363.39 
0 0 0 0 0 0 0 0 
0 0 0 0 0 0 0 0 
25.3291 -6.01567e-05 0 0 -25.3291 0 0 0 
2.94591 -6.99654e-06 0 0 -2.94591 0 0 0 
7.93806 -1.88529e-05 0 0 -7.93806 0 0 0 
4.42699 -1.05141e-05 -1.19853e-06 6.81885e-07 -4.42699 0 0 7156.12 
0 0 0 0 0 0 0 0 
0 0 0 0 0 0 0 0 
5.26152 -1.24961e-05 1.37679e-06 7.3097e-07 -5.26152 0 0 6835.33 
0 0 0 0 0 0 0 0 
0 0 0 0 0 0 0 0 
0 0 0 0 0 0 0 0 
24.6084 -5.84451e-05 0 0 -24.6084 0 0 0 
0 0 0 0 0 0 0 0 
0 0 0 0 0 0 0 0 
3.3642 -8.20024e-06 -1.95895e-06 2.02075e-06 -3.3642 0 0 5615.86 
0 0 0 0 0 0 0 0 
0 0 0 0 0 0 0 0 
8.61364 -2.04575e-05 -1.92197e-08 -6.47216e-08 -8.61364 0 0 2310.13 
0 0 0 0 0 0 0 0 
0 0 0 0 0 0 0 0 
13.6171 -3.23408e-05 0 0 -13.6171 0 0 0 
0 0 0 0 0 0 0 0 
0 0 0 0 0 0 0 0 
0 0 0 0 0 0 0 0 
12.673 -3.08904e-05 0 0 -12.673 0 0 0 
5.66025 -1.34432e-05 0 0 -5.66025 0 0 0 
4.88358 -1.15986e-05 1.90015e-06 5.26263e-07 -4.88358 0 0 7697.97 
0 0 0 0 0 0 0 0 
0 0 0 0 0 0 0 0 
8.00286 -1.90068e-05 0 0 -8.00286 0 0 0 
7.99443 -1.89868e-05 0 0 -7.99443 0 0 0 
17.2527 -4.09752e-05 0 0 -17.2527 0 0 0 
0 0 0 0 0 0 0 0 
0 0 0 0 0 0 0 0 
0 0 0 0 0 0 0 0 
3.29851 -7.83396e-06 8.76365e-07 -9.31757e-07 -3.29851 0 0 4904.83 
19.8489 -4.71412e-05 -6.83143e-07 1.12352e-06 -19.8489 0 0 7478.2 
12.6583 -3.00635e-05 -1.11558e-06 -6.30105e-07 -12.6583 0 0 8379.35 
2.82645 -6.71287e-06 5.14669e-07 -5.95966e-07 -2.82645 0 0 4658.19 
0 0 0 0 0 0 0 0 
0 0 0 0 0 0 0 0 
7.08218 -1.68202e-05 0 0 -7.08218 0 0 0 
12.819 -3.04452e-05 -7.1619e-08 -8.50141e-07 -12.819 0 0 6903.97 
8.33165 -1.97878e-05 0 0 -8.33165 0 0 0 
8.25921 -1.96157e-05 0 0 -8.25921 0 0 0 
162.313 -2.02893e-05 0 0 -162.313 0 0 0 
0 0 0 0 0 0 0 0 
8.445 -2.00569e-05 7.59014e-07 -5.30268e-07 -8.445 0 0 6131.05 
8.20511 -1.94872e-05 0 0 -8.20511 0 0 0 
8.36242 -1.98608e-05 0 0 -8.36242 0 0 0 
20.9008 -4.96395e-05 -4.16632e-07 -8.95438e-07 -20.9008 0 0 5567.72 
0 0 0 0 0 0 0 0 
0 0 0 0 0 0 0 0 
0 0 0 0 0 0 0 0 
1.25643 -2.98403e-06 0 0 -1.25643 0 0 0 
7.93755 -1.88517e-05 0 0 -7.93755 0 0 0 
4.49549 -1.06768e-05 2.98721e-07 6.12368e-07 -4.49549 0 0 7391.31 
0 0 0 0 0 0 0 0 
0 0 0 0 0 0 0 0 
5.47959 -1.3014e-05 0 0 -5.47959 0 0 0 
24.5011 -5.81903e-05 0 0 -24.5011 0 0 0 
0 0 0 0 0 0 0 0 
0 0 0 0 0 0 0 0 
0 0 0 0 0 0 0 0 
0 0 0 0 0 0 0 0 
19.2695 -4.5765e-05 -4.24456e-07 8.86384e-07 -19.2695 0 0 4554.37 
11.6313 -2.76242e-05 5.903e-07 6.06797e-07 -11.6313 0 0 4039.54 
0 0 0 0 0 0 0 0 
0 0 0 0 0 0 0 0 
13.7318 -3.26131e-05 0 0 -13.7318 0 0 0 
20.0172 -4.75409e-05 0 0 -20.0172 0 0 0 
0 0 0 0 0 0 0 0 
14.2529 -3.38506e-05 0 0 -14.2529 0 0 0 
95.4129 -1.19266e-05 -4.62958e-07 -8.19911e-07 -95.4129 0 0 155607 
0 0 0 0 0 0 0 0 
9.18739 -2.18201e-05 -4.92083e-07 -1.61282e-06 -9.18739 0 0 13994.2 
8.55847 -2.03264e-05 0 0 -8.55847 0 0 0 
0 0 0 0 0 0 0 0 
17.2062 -4.08648e-05 0 0 -17.2062 0 0 0 
0 0 0 0 0 0 0 0 
0 0 0 0 0 0 0 0 
5.72677 -1.36011e-05 0 0 -5.72677 0 0 0 
5.64716 -1.3412e-05 0 0 -5.64716 0 0 0 
0 0 0 0 0 0 0 0 
8.65602 -2.05581e-05 0 0 -8.65602 0 0 0 
0 0 0 0 0 0 0 0 
0 0 0 0 0 0 0 0 
20.4688 -4.86134e-05 0 0 -20.4688 0 0 0 
15.7233 -3.7343e-05 0 0 -15.7233 0 0 0 
0 0 0 0 0 0 0 0 
0 0 0 0 0 0 0 0 
7.80709 -1.85419e-05 0 0 -7.80709 0 0 0 
23.9425 -5.68635e-05 5.99522e-07 -1.01512e-06 -23.9425 0 0 7488.3 
0 0 0 0 0 0 0 0 
0 0 0 0 0 0 0 0 
8.6083 -2.04447e-05 0 0 -8.6083 0 0 0 
7.84286 -1.86268e-05 0 0 -7.84286 0 0 0 
0 0 0 0 0 0 0 0 
150.236 -1.87794e-05 0 0 -150.236 0 0 0 
0 0 0 0 0 0 0 0 
9.13647 -2.16992e-05 -1.6091e-06 -8.22088e-07 -9.13647 0 0 10916 
0 0 0 0 0 0 0 0 
0 0 0 0 0 0 0 0 
16.4053 -3.99882e-05 0 0 -16.4053 0 0 0 
0 0 0 0 0 0 0 0 
9.65187 -0.00475769 8.97676e-06 -1.26275e-05 -9.65187 0 0 2243.09 
7.92375 -0.000386283 -1.61064e-06 -5.18427e-07 -7.92375 0 0 241.256 
15.6193 -3.90485e-05 0 0 -15.6193 0 0 0 
9.1398 -0.00043414 6.17832e-07 3.51172e-06 -9.1398 0 0 1532.38 
14.6726 -3.66815e-05 0 0 -14.6726 0 0 0 
8.77516 -0.00041682 2.30938e-06 -3.70075e-06 -8.77516 0 0 1378.27 
8.61293 -2.15324e-05 -8.41283e-08 -4.63031e-07 -8.61293 0 0 6037.76 
9.06699 -0.000430682 2.00585e-07 -2.85706e-07 -9.06699 0 0 1317.97 
27.8626 -6.96565e-05 1.65761e-06 -1.16281e-06 -27.8626 0 0 7172.4 
9.91065 -0.000470756 8.25601e-06 -9.75855e-06 -9.91065 0 0 1867.7 
3.44663 -8.61659e-06 0 0 -3.44663 0 0 0 
10.897 -0.000517608 1.53887e-06 3.145e-06 -10.897 0 0 3569.02 
0 0 0 0 0 0 0 0 
8.34111 -0.000396203 -1.65973e-07 -2.82319e-08 -8.34111 0 0 714.921 
23.668 -5.91702e-05 0 0 -23.668 0 0 2.12236e-11 
6.89827 -0.00033629 2.24928e-06 -3.09173e-07 -6.89827 0 0 2080.32 
9.00836 -0.00393089 -1.18537e-05 -1.77723e-06 -9.00836 0 0 1493.07 
7.4584 -0.000519932 -4.02087e-06 3.55686e-06 -7.4584 0 0 807.7 
11.2312 -0.000965887 -1.35615e-06 4.996e-07 -11.2312 0 0 2364.75 
12.014 -0.0010332 -1.29362e-08 -2.83376e-06 -12.014 0 0 1837.78 
9.73609 -0.000474634 -3.15157e-06 -8.13686e-07 -9.73609 0 0 1512.82 
8.10819 -2.02705e-05 0 0 -8.10819 0 0 0 
10.9594 -0.00052057 -2.49819e-07 -6.18071e-07 -10.9594 0 0 2725.61 
2.74652 -6.86631e-06 0 0 -2.74652 0 0 0 
9.03721 -0.000429267 1.22526e-06 7.9728e-06 -9.03721 0 0 1784.61 
4.263 -1.06575e-05 6.22152e-07 -7.41474e-07 -4.263 0 0 4248.81 
13.1354 -0.000623931 -6.73647e-10 -2.03988e-06 -13.1354 0 0 1884.69 
14.9143 -3.72858e-05 0 0 -14.9143 0 0 0 
6.92903 -0.000329129 -3.5493e-07 1.28428e-06 -6.92903 0 0 855.558 
10.5018 -2.62547e-05 -5.61354e-07 2.91463e-07 -10.5018 0 0 6091.35 
12.5635 -0.000596766 3.39246e-06 -3.68813e-06 -12.5635 0 0 2001.19 
7.97103 -1.99276e-05 0 0 -7.97103 0 0 0 
7.21019 -0.000342484 -2.63762e-06 4.03894e-06 -7.21019 0 0 1321.45 
6.63937 -1.65985e-05 0 0 -6.63937 0 0 5.85479e-12 
8.74485 -0.000426311 5.09581e-06 3.221e-06 -8.74485 0 0 1704.49 
9.39399 -0.000457957 7.25831e-06 -3.80087e-06 -9.39399 0 0 1473.24 
10.199 -0.00502739 -4.53148e-06 2.56723e-06 -10.199 0 0 2336.64 
10.328 -0.000888202 1.488e-06 1.31189e-06 -10.328 0 0 1944.25 
8.77903 -0.000754997 1.73373e-06 1.75816e-06 -8.77903 0 0 934.587 
10.8121 -0.000142095 1.43317e-06 1.62255e-07 -10.8121 0 0 3776.25 
7.49312 -0.000365289 9.85366e-07 -2.92524e-06 -7.49312 0 0 1718.16 
0 0 0 0 0 0 0 0 
8.17058 -0.000388103 -3.90924e-06 -4.88398e-07 -8.17058 0 0 3316.17 
4.25651 -1.06413e-05 -8.44634e-07 1.23361e-07 -4.25651 0 0 6698.53 
7.60568 -0.00036127 -8.16525e-07 1.71106e-07 -7.60568 0 0 2920.53 
0 0 0 0 0 0 0 0 
7.24092 -0.000343944 2.36831e-07 -2.79987e-06 -7.24092 0 0 1114.84 
8.71832 -2.17958e-05 0 0 -8.71832 0 0 0 
11.68 -0.000554799 -1.1614e-06 -6.21939e-07 -11.68 0 0 322.134 
10.9769 -2.74424e-05 -1.72945e-06 1.80005e-06 -10.9769 0 0 5576.51 
11.9487 -0.000567564 -4.06208e-06 2.06172e-07 -11.9487 0 0 2904.94 
4.37886 -1.09471e-05 0 0 -4.37886 0 0 0 
10.7391 -0.000510105 -1.09956e-06 -7.8882e-07 -10.7391 0 0 2341.88 
0 0 0 0 0 0 0 0 
6.19272 -0.000301895 -5.00191e-06 2.38949e-06 -6.19272 0 0 1087.5 
9.07884 -0.00447522 1.03639e-06 5.25128e-06 -9.07884 0 0 1736.5 
7.94108 -1.98528e-05 0 0 -7.94108 0 0 0 
8.52982 -0.000405166 -1.14701e-06 -2.15984e-07 -8.52982 0 0 1594.99 
7.57594 -1.89399e-05 0 0 -7.57594 0 0 0 
8.48943 -0.000403248 -5.38865e-06 -1.41112e-06 -8.48943 0 0 1143.98 
21.6496 -5.4124e-05 4.7662e-07 1.75349e-07 -21.6496 0 0 6214.83 
9.8402 -0.00046741 5.23261e-06 -2.21745e-06 -9.8402 0 0 2326.79 
7.53532 -1.88383e-05 0 0 -7.53532 0 0 0 
11.2171 -0.00053281 -2.19402e-06 -4.06905e-06 -11.2171 0 0 2850.79 
20.5339 -5.13349e-05 0 0 -20.5339 0 0 0 
6.88755 -0.000327159 4.80629e-06 -2.00644e-07 -6.88755 0 0 1813.93 
4.30107 -1.07527e-05 -1.17689e-06 -6.05288e-07 -4.30107 0 0 7845.81 
7.20465 -0.000342221 1.29138e-06 9.9796e-07 -7.20465 0 0 1741.35 
13.5374 -3.38437e-05 0 0 -13.5374 0 0 1.17096e-11 
7.69159 -0.000374965 3.50276e-06 -2.21767e-06 -7.69159 0 0 1482.46 
0.158246 -3.55826e-05 9.25737e-05 -6.60592e-06 0 0.158246 0 102.598 
0.326316 -8.93317e-06 9.54473e-05 1.26823e-06 0 0.326316 0 72.4493 
0.309329 -3.50408e-06 9.04787e-05 2.05306e-06 0 0.309329 0 33.5261 
0 0 0 0 0 0 0 0 
0 0 0 0 0 0 0 0 
1.90043 4.51353e-06 0 0 1.90043 0 0 0 
0 0 0 0 0 0 0 0 
0 0 0 0 0 0 0 0 
0 0 0 0 0 0 0 0 
0 0 0 0 0 0 0 0 
0 0 0 0 0 0 0 0 
0 0 0 0 0 0 0 0 
0 0 0 0 0 0 0 0 
0 0 0 0 0 0 0 0 
0 0 0 0 0 0 0 0 
0 0 0 0 0 0 0 0 
0 0 0 0 0 0 0 0 
0 0 0 0 0 0 0 0 
0 0 0 0 0 0 0 0 
0 0 0 0 0 0 0 0 
0 0 0 0 0 0 0 0 
0 0 0 0 0 0 0 0 
0 0 0 0 0 0 0 0 
0 0 0 0 0 0 0 0 
0.80964 1.9229e-06 0 0 0.80964 0 0 0 
0 0 0 0 0 0 0 0 
0 0 0 0 0 0 0 0 
0 0 0 0 0 0 0 0 
4.23222 1.00515e-05 -3.16064e-07 -7.17618e-07 4.23222 0 0 6058.57 
0 0 0 0 0 0 0 0 
0 0 0 0 0 0 0 0 
0 0 0 0 0 0 0 0 
0 0 0 0 0 0 0 0 
0 0 0 0 0 0 0 0 
1.26852 3.01275e-06 0 0 1.26852 0 0 0 
0 0 0 0 0 0 0 0 
0 0 0 0 0 0 0 0 
0 0 0 0 0 0 0 0 
3.38975 8.68623e-06 0 0 3.38975 0 0 0 
0 0 0 0 0 0 0 0 
0 0 0 0 0 0 0 0 
0 0 0 0 0 0 0 0 
2.73618 6.4984e-06 0 0 2.73618 0 0 0 
0 0 0 0 0 0 0 0 
0 0 0 0 0 0 0 0 
0 0 0 0 0 0 0 0 
0 0 0 0 0 0 0 0 
0 0 0 0 0 0 0 0 
0 0 0 0 0 0 0 0 
0 0 0 0 0 0 0 0 
0 0 0 0 0 0 0 0 
0 0 0 0 0 0 0 0 
0 0 0 0 0 0 0 0 
0 0 0 0 0 0 0 0 
0 0 0 0 0 0 0 0 
0 0 0 0 0 0 0 0 
0 0 0 0 0 0 0 0 
0 0 0 0 0 0 0 0 
0 0 0 0 0 0 0 0 
0 0 0 0 0 0 0 0 
3.34601 7.94679e-06 0 0 3.34601 0 0 0 
0 0 0 0 0 0 0 0 
0 0 0 0 0 0 0 0 
0 0 0 0 0 0 0 0 
0 0 0 0 0 0 0 0 
0 0 0 0 0 0 0 0 
0 0 0 0 0 0 0 0 
0 0 0 0 0 0 0 0 
1.19057 2.82759e-06 0 0 1.19057 0 0 0 
0 0 0 0 0 0 0 0 
0 0 0 0 0 0 0 0 
0 0 0 0 0 0 0 0 
0 0 0 0 0 0 0 0 
0 0 0 0 0 0 0 0 
0 0 0 0 0 0 0 0 
0 0 0 0 0 0 0 0 
0 0 0 0 0 0 0 0 
0 0 0 0 0 0 0 0 
0 0 0 0 0 0 0 0 
0 0 0 0 0 0 0 0 
0 0 0 0 0 0 0 0 
0 0 0 0 0 0 0 0 
0 0 0 0 0 0 0 0 
1.39231 3.30674e-06 3.86897e-08 -2.05036e-06 1.39231 0 0 1063.66 
0 0 0 0 0 0 0 0 
23.5181 2.93976e-06 0 0 23.5181 0 0 0 
0 0 0 0 0 0 0 0 
0 0 0 0 0 0 0 0 
4.93843 1.17288e-05 0 0 4.93843 0 0 0 
0 0 0 0 0 0 0 0 
0 0 0 0 0 0 0 0 
0 0 0 0 0 0 0 0 
0 0 0 0 0 0 0 0 
0 0 0 0 0 0 0 0 
1.43811 3.41552e-06 0 0 1.43811 0 0 0 
0 0 0 0 0 0 0 0 
0 0 0 0 0 0 0 0 
0 0 0 0 0 0 0 0 
4.24543 1.00829e-05 0 0 4.24543 0 0 0 
0 0 0 0 0 0 0 0 
0 0 0 0 0 0 0 0 
0 0 0 0 0 0 0 0 
0 0 0 0 0 0 0 0 
0 0 0 0 0 0 0 0 
0 0 0 0 0 0 0 0 
0 0 0 0 0 0 0 0 
0 0 0 0 0 0 0 0 
1.52061 3.61145e-06 -2.46229e-06 2.54683e-06 1.52061 0 0 2686.96 
0 0 0 0 0 0 0 0 
0 0 0 0 0 0 0 0 
0 0 0 0 0 0 0 0 
1.03906 2.46778e-06 -1.98628e-06 8.43616e-07 1.03906 0 0 735.636 
0 0 0 0 0 0 0 0 
0 0 0 0 0 0 0 0 
0 0 0 0 0 0 0 0 
0 0 0 0 0 0 0 0 
0 0 0 0 0 0 0 0 
0 0 0 0 0 0 0 0 
0 0 0 0 0 0 0 0 
0 0 0 0 0 0 0 0 
0 0 0 0 0 0 0 0 
2.99351 7.1096e-06 0 0 2.99351 0 0 0 
0 0 0 0 0 0 0 0 
0 0 0 0 0 0 0 0 
0 0 0 0 0 0 0 0 
0 0 0 0 0 0 0 0 
0 0 0 0 0 0 0 0 
0 0 0 0 0 0 0 0 
0 0 0 0 0 0 0 0 
0 0 0 0 0 0 0 0 
0 0 0 0 0 0 0 0 
0 0 0 0 0 0 0 0 
0 0 0 0 0 0 0 0 
0 0 0 0 0 0 0 0 
0 0 0 0 0 0 0 0 
0 0 0 0 0 0 0 0 
0 0 0 0 0 0 0 0 
9.07475 2.15526e-05 0 0 9.07475 0 0 0 
0 0 0 0 0 0 0 0 
0 0 0 0 0 0 0 0 
0 0 0 0 0 0 0 0 
0 0 0 0 0 0 0 0 
5.5828 1.32591e-05 0 0 5.5828 0 0 0 
0 0 0 0 0 0 0 0 
0 0 0 0 0 0 0 0 
0 0 0 0 0 0 0 0 
0 0 0 0 0 0 0 0 
0 0 0 0 0 0 0 0 
0 0 0 0 0 0 0 0 
0 0 0 0 0 0 0 0 
0 0 0 0 0 0 0 0 
0 0 0 0 0 0 0 0 
0 0 0 0 0 0 0 0 
0 0 0 0 0 0 0 0 
0 0 0 0 0 0 0 0 
0 0 0 0 0 0 0 0 
0 0 0 0 0 0 0 0 
0 0 0 0 0 0 0 0 
0 0 0 0 0 0 0 0 
0 0 0 0 0 0 0 0 
0 0 0 0 0 0 0 0 
0 0 0 0 0 0 0 0 
0 0 0 0 0 0 0 0 
0 0 0 0 0 0 0 0 
0 0 0 0 0 0 0 0 
0 0 0 0 0 0 0 0 
0 0 0 0 0 0 0 0 
0 0 0 0 0 0 0 0 
1.97947 4.70125e-06 0 0 1.97947 0 0 0 
0 0 0 0 0 0 0 0 
0 0 0 0 0 0 0 0 
0 0 0 0 0 0 0 0 
0 0 0 0 0 0 0 0 
0 0 0 0 0 0 0 0 
0 0 0 0 0 0 0 0 
0 0 0 0 0 0 0 0 
0 0 0 0 0 0 0 0 
0 0 0 0 0 0 0 0 
0 0 0 0 0 0 0 0 
0 0 0 0 0 0 0 0 
0 0 0 0 0 0 0 0 
0 0 0 0 0 0 0 0 
0 0 0 0 0 0 0 0 
0 0 0 0 0 0 0 0 
0 0 0 0 0 0 0 0 
0 0 0 0 0 0 0 0 
0 0 0 0 0 0 0 0 
0 0 0 0 0 0 0 0 
0 0 0 0 0 0 0 0 
0 0 0 0 0 0 0 0 
0 0 0 0 0 0 0 0 
0 0 0 0 0 0 0 0 
0 0 0 0 0 0 0 0 
0 0 0 0 0 0 0 0 
0 0 0 0 0 0 0 0 
0 0 0 0 0 0 0 0 
0 0 0 0 0 0 0 0 
0 0 0 0 0 0 0 0 
0 0 0 0 0 0 0 0 
0 0 0 0 0 0 0 0 
0 0 0 0 0 0 0 0 
0 0 0 0 0 0 0 0 
0 0 0 0 0 0 0 0 
0 0 0 0 0 0 0 0 
0 0 0 0 0 0 0 0 
0 0 0 0 0 0 0 0 
0 0 0 0 0 0 0 0 
0 0 0 0 0 0 0 0 
0 0 0 0 0 0 0 0 
0 0 0 0 0 0 0 0 
0 0 0 0 0 0 0 0 
0 0 0 0 0 0 0 0 
0 0 0 0 0 0 0 0 
0 0 0 0 0 0 0 0 
0 0 0 0 0 0 0 0 
0 0 0 0 0 0 0 0 
0 0 0 0 0 0 0 0 
0 0 0 0 0 0 0 0 
0 0 0 0 0 0 0 0 
0 0 0 0 0 0 0 0 
0 0 0 0 0 0 0 0 
0 0 0 0 0 0 0 0 
0 0 0 0 0 0 0 0 
0 0 0 0 0 0 0 0 
0 0 0 0 0 0 0 0 
0.901724 2.1416e-06 1.98505e-06 -3.11763e-07 0.901724 0 0 2798.35 
0 0 0 0 0 0 0 0 
0 0 0 0 0 0 0 0 
0 0 0 0 0 0 0 0 
0 0 0 0 0 0 0 0 
0 0 0 0 0 0 0 0 
1.38367 3.37271e-06 0 0 1.38367 0 0 0 
0 0 0 0 0 0 0 0 
3.79506 9.01332e-06 0 0 3.79506 0 0 0 
3.1695 7.5276e-06 0 0 3.1695 0 0 0 
0.691621 1.68583e-06 0 0 0.691621 0 0 0 
0 0 0 0 0 0 0 0 
0 0 0 0 0 0 0 0 
2.53287 6.0156e-06 0 0 2.53287 0 0 0 
0 0 0 0 0 0 0 0 
0 0 0 0 0 0 0 0 
0 0 0 0 0 0 0 0 
0 0 0 0 0 0 0 0 
0 0 0 0 0 0 0 0 
0 0 0 0 0 0 0 0 
0 0 0 0 0 0 0 0 
0 0 0 0 0 0 0 0 
0 0 0 0 0 0 0 0 
0 0 0 0 0 0 0 0 
0 0 0 0 0 0 0 0 
7.69294 1.82708e-05 0 0 7.69294 0 0 0 
0 0 0 0 0 0 0 0 
0 0 0 0 0 0 0 0 
0 0 0 0 0 0 0 0 
0 0 0 0 0 0 0 0 
0 0 0 0 0 0 0 0 
0 0 0 0 0 0 0 0 
0 0 0 0 0 0 0 0 
0 0 0 0 0 0 0 0 
0 0 0 0 0 0 0 0 
0 0 0 0 0 0 0 0 
1.47425 3.59349e-06 0 0 1.47425 0 0 0 
0 0 0 0 0 0 0 0 
0 0 0 0 0 0 0 0 
0 0 0 0 0 0 0 0 
0 0 0 0 0 0 0 0 
0 0 0 0 0 0 0 0 
0 0 0 0 0 0 0 0 
0 0 0 0 0 0 0 0 
16.7004 2.08755e-06 -2.37047e-07 2.88151e-06 16.7004 0 0 27026 
0 0 0 0 0 0 0 0 
0 0 0 0 0 0 0 0 
0 0 0 0 0 0 0 0 
0 0 0 0 0 0 0 0 
0 0 0 0 0 0 0 0 
0 0 0 0 0 0 0 0 
0 0 0 0 0 0 0 0 
0 0 0 0 0 0 0 0 
0 0 0 0 0 0 0 0 
0.435159 1.0607e-06 0 0 0.435159 0 0 0 
0 0 0 0 0 0 0 0 
0 0 0 0 0 0 0 0 
0 0 0 0 0 0 0 0 
0 0 0 0 0 0 0 0 
0 0 0 0 0 0 0 0 
0.405766 9.89059e-07 0 0 0.405766 0 0 0 
0 0 0 0 0 0 0 0 
0 0 0 0 0 0 0 0 
0 0 0 0 0 0 0 0 
0 0 0 0 0 0 0 0 
0 0 0 0 0 0 0 0 
0 0 0 0 0 0 0 0 
0 0 0 0 0 0 0 0 
0 0 0 0 0 0 0 0 
0 0 0 0 0 0 0 0 
2.20519 5.23735e-06 3.44853e-06 9.27232e-07 2.20519 0 0 2492.21 
0 0 0 0 0 0 0 0 
0.243892 5.94489e-07 0 0 0.243892 0 0 0 
0 0 0 0 0 0 0 0 
0 0 0 0 0 0 0 0 
0 0 0 0 0 0 0 0 
0 0 0 0 0 0 0 0 
0 0 0 0 0 0 0 0 
0 0 0 0 0 0 0 0 
0 0 0 0 0 0 0 0 
0 0 0 0 0 0 0 0 
0 0 0 0 0 0 0 0 
0 0 0 0 0 0 0 0 
0 0 0 0 0 0 0 0 
0 0 0 0 0 0 0 0 
0 0 0 0 0 0 0 0 
0 0 0 0 0 0 0 0 
0 0 0 0 0 0 0 0 
0 0 0 0 0 0 0 0 
0 0 0 0 0 0 0 0 
0 0 0 0 0 0 0 0 
0 0 0 0 0 0 0 0 
0 0 0 0 0 0 0 0 
0 0 0 0 0 0 0 0 
0 0 0 0 0 0 0 0 
0 0 0 0 0 0 0 0 
0 0 0 0 0 0 0 0 
9.46824 2.30788e-05 0 0 9.46824 0 0 0 
0 0 0 0 0 0 0 0 
0 0 0 0 0 0 0 0 
0 0 0 0 0 0 0 0 
1.96991 4.80166e-06 0 0 1.96991 0 0 0 
0 0 0 0 0 0 0 0 
0 0 0 0 0 0 0 0 
0.213062 -1.15392e-05 -0.000124642 1.36892e-06 0 -0.213062 0 49.8476 
0.257797 -2.5463e-06 -0.000150811 3.04674e-07 0 -0.257797 0 -1.07645 
2.43669 -0.000311421 0.000285535 -0.00029579 -1.21834 1.49216 -1.49216 684.081 
2.4131 -0.000356105 0.000272642 -0.000264117 -1.20655 1.47771 -1.47772 1109.97 
0.0513251 -0.000415183 0.000451778 0.000484563 0 0.0362923 0.0362923 58.4369 
0.0506763 -0.000960187 0.00101666 0.0010366 1.20213e-09 0.0358336 0.0358336 60.8791 
0.0429348 -0.000209365 0.000186073 0.00019051 0 0.0303595 0.0303595 66.878 
0.0580511 -0.000382324 0.000858452 -3.8905e-06 0 0.0580511 0 48.7869 
0.0434422 -0.000370157 0.000642418 -2.72999e-06 0 0.0434422 0 47.2397 
0.0477984 -0.000290226 -1.28548e-05 0.000706837 0 0 0.0477984 37.3885 
0.0501759 -0.0004834 1.42764e-05 0.000741994 0 0 0.0501759 61.5673 
0.0531348 -0.000967621 0.00105261 0.00110027 0 0.037572 0.037572 59.914 
0.050647 -0.000277451 0.000467327 0.000456644 -7.39371e-10 0.0358128 0.0358128 38.9298 
0.0408171 -0.000158104 0.00018169 0.000176319 0 0.0288621 0.0288621 47.8235 
2.13217 -0.000301492 -0.000244568 0.000240436 -1.06608 -1.30568 1.30568 897.081 
2.52696 -0.00034204 -0.000292903 0.000294386 -1.26348 -1.54743 1.54745 940.277 
0.0496695 -0.000818549 -0.00100018 -0.00101229 0 -0.0351216 -0.0351216 50.9201 
0.0465987 -0.000398843 -0.000415737 -0.00043438 2.45503e-09 -0.0329503 -0.0329503 56.3167 
0.044625 -0.000124025 -0.000197029 -0.000194379 0 -0.0315547 -0.0315547 33.232 
0.0626354 -0.000350016 -0.000926244 7.04456e-06 0 -0.0626354 0 44.0614 
0.0467975 -0.000512227 -0.000692036 4.82447e-06 0 -0.0467975 0 62.0653 
0.0586565 -0.000432045 4.56603e-06 -0.000867405 0 0 -0.0586565 52.956 
0.0487046 -0.000435829 1.11325e-06 -0.000720238 0 0 -0.0487046 54.535 
0.0600836 -0.000368801 -0.000549941 -0.000546186 0 -0.0424855 -0.0424855 52.5821 
0.0497534 -0.000768601 -0.00101256 -0.00100331 -3.27037e-10 -0.0351809 -0.0351809 48.8231 
0.0435244 -0.00022109 -0.000186298 -0.000195456 0 -0.0307764 -0.0307764 65.6723 
0.300698 -2.95423e-05 2.45386e-06 -0.000175908 0 0 -0.300698 116.126 
0.40215 -1.85423e-05 -1.25697e-06 -0.000235257 0 0 -0.40215 64.0468 
0.289756 -1.43822e-05 -0.000165161 2.66501e-06 0 -0.289756 0 78.058 
0.461214 -5.09994e-05 -0.000262892 7.13415e-06 0 -0.461214 0 149.95 
0.314756 -2.84097e-05 -3.759e-06 0.000184132 0 0 0.314756 89.2472 
0.397783 -3.57487e-05 -5.39366e-07 0.000232703 0 0 0.397783 151.153 
0.445141 -2.53343e-05 0.00025373 3.31348e-06 0 0.445141 0 139.856 
0.288317 -2.68822e-05 0.000164341 -2.74993e-06 0 0.288317 0 78.9092 
0.179625 -1.71366e-06 0.000102386 -6.10622e-06 0 0.179625 0 23.1231 
0.18501 -1.85595e-05 0.000105456 -6.00468e-07 0 0.18501 0 58.4235 
0.14195 -9.44818e-06 -5.27909e-06 -8.09115e-05 0 0 -0.14195 44.2769 
0.119003 -1.53793e-05 2.95779e-06 -6.7832e-05 0 0 -0.119003 54.7486 
0.152382 -1.97747e-05 -8.6858e-05 5.69832e-06 0 -0.152382 0 63.9078 
0.173009 -2.01663e-05 -9.86149e-05 -7.77998e-06 0 -0.173009 0 118.869 
0.171495 -4.30218e-06 -4.44658e-06 9.77519e-05 0 -3.36238e-08 0.171495 18.2036 
0.123987 -3.72377e-05 2.35419e-06 7.06726e-05 0 -2.43093e-08 0.123987 132.038 
0.263375 -1.57448e-05 0.000150124 -3.46103e-06 0 0.263375 0 38.2237 
0.191967 -2.63855e-05 0.000109421 -3.09364e-07 0 0.191967 0 102.143 
0.261479 -6.83855e-05 -1.41795e-06 -0.000149043 0 0 -0.261479 205.921 
0.248754 -1.16388e-05 -2.92043e-06 -0.00014179 0 0 -0.248754 43.4173 
0.229509 -1.65492e-05 -0.00013082 6.47931e-06 0 -0.229509 0 173.336 
0.256983 -5.36447e-05 -0.00014648 -8.13258e-06 0 -0.256983 0 185.139 
0.305007 -1.06075e-05 9.18727e-07 0.000173854 0 0 0.305007 31.1009 
0.246654 -1.92685e-05 -5.87436e-06 0.000140593 0 0 0.246654 82.5365 
0.356619 -2.42961e-05 -0.000203273 -8.87571e-07 0 -0.356619 0 99.789 
0.409702 -4.25951e-05 -0.00023353 -3.86764e-06 0 -0.409702 0 179.421 
0.388695 -4.01922e-05 -4.70569e-06 0.000221556 0 0 0.388695 128.425 
0.437645 -2.66513e-05 -4.69277e-06 0.000249458 0 0 0.437645 113.189 
0.385446 -7.9523e-06 0.000219704 -2.42726e-06 0 0.385446 0 13.4706 
0.351756 -3.61568e-05 0.000200501 -6.12051e-06 0 0.351756 0 146.66 
0.276859 -2.3324e-05 5.9249e-06 -0.000157809 0 0 -0.276859 84.6425 
0.536223 -4.87474e-05 4.9719e-07 -0.000305647 0 0 -0.536223 147.718 
0.365802 -6.02274e-05 0.000208507 -9.5315e-06 0 0.365802 0 189.891 
0.429504 -1.98243e-05 0.000244817 -9.18055e-07 0 0.429504 0 42.5144 
0.306163 -4.22838e-05 2.04559e-05 -0.000174513 0 0 -0.306163 133.483 
0.350993 -1.94551e-05 5.38468e-07 -0.000200066 0 0 -0.350993 58.7316 
0.4244 -1.27722e-05 -0.000241908 -1.0095e-06 0 -0.4244 0 52.5519 
0.438382 -5.25236e-05 -0.000249878 7.79364e-06 0 -0.438382 0 145.33 
0.346374 -4.35053e-05 2.0619e-05 0.000197433 0 0 0.346374 146.676 
0.36702 -2.81457e-05 -5.14287e-06 0.000209202 0 0 0.36702 95.3337 
0.295558 -3.4066e-05 0.000168468 3.27815e-06 0 0.295558 0 107.619 
0.343564 -3.4981e-05 0.000195832 1.16296e-05 0 0.343564 0 123.038 
0.332203 -5.86045e-05 9.24597e-06 -0.000189356 0 0 -0.332203 209.937 
0.397234 -2.76927e-05 3.33109e-06 -0.000226423 0 0 -0.397234 92.95 
0.311715 -2.37773e-05 -0.000177677 -1.61452e-05 0 -0.311715 0 124.518 
0.36399 -2.21767e-05 -0.000207474 3.46293e-06 0 -0.36399 0 96.9684 
0.33707 -1.90823e-05 -7.48733e-06 0.00019213 0 0 0.33707 69.0533 
0.426442 -1.65429e-05 4.10998e-06 0.000243072 0 0 0.426442 57.9824 
0.296305 -2.86457e-05 1.33707e-05 -0.000168894 0 0 -0.296305 128.12 
0.248669 -8.68138e-06 -1.87231e-06 -0.000141741 0 0 -0.248669 27.8537 
0.224501 -5.22586e-05 -0.000127966 4.51338e-06 0 -0.224501 0 140.921 
0.229238 -1.50408e-05 -0.000130666 2.89258e-06 0 -0.229238 0 34.8905 
0.292852 -3.46523e-05 8.03414e-06 0.000166926 0 0 0.292852 131.582 
0.258489 -5.05094e-06 1.42136e-06 0.000147338 0 0 0.258489 32.3265 
0.23435 -1.35796e-05 0.000133579 5.24013e-06 0 0.23435 0 48.202 
0.174077 -2.52927e-05 9.92239e-05 -5.78001e-06 0 0.174077 0 75.7473 
0.296093 -3.50936e-05 0.000168773 -7.53695e-06 0 0.296093 0 94.9453 
0.294269 -5.84978e-05 0.000167733 1.29038e-05 0 0.294269 0 165.757 
0.28505 -6.63924e-06 2.9686e-08 -0.000162479 0 0 -0.28505 38.6132 
0.378821 -3.03698e-05 -1.52842e-06 -0.000215928 0 0 -0.378821 105.219 
0.356666 -9.67026e-06 -0.0002033 4.58177e-06 0 -0.356666 0 32.538 
0.208281 -4.34729e-05 -0.00011872 7.14591e-07 0 -0.208281 0 126.329 
0.363536 -1.97939e-05 -9.33106e-06 0.000207215 0 0 0.363536 90.4043 
0.291763 -4.18344e-05 -8.25249e-08 0.000166305 0 0 0.291763 116.712 
0.301571 -1.95519e-05 -9.35984e-06 -0.000171896 0 0 -0.301571 96.298 
0.320277 -2.73054e-05 1.86875e-07 -0.000182558 0 0 -0.320277 91.9847 
0.388553 -1.71467e-05 -0.000221475 3.39556e-06 0 -0.388553 0 68.551 
0.199775 -1.65692e-05 -0.000113872 1.14179e-06 0 -0.199775 0 55.0076 
0.36385 -3.67352e-06 -1.62767e-06 0.000207395 0 0 0.36385 24.7228 
0.260644 -2.21069e-05 1.38433e-06 0.000148567 0 0 0.260644 82.5737 
0.311518 -4.22365e-05 0.000177566 -1.9227e-06 0 0.311518 6.10773e-08 132.319 
0.279078 -1.60747e-05 0.000159074 -1.68746e-06 0 0.279078 5.47169e-08 52.4588 
0.278577 -1.35956e-05 -5.36707e-06 -0.000158789 0 0 -0.278577 59.5398 