ITEM: TIMESTEP
210
ITEM: NUMBER OF SURFS
6916
ITEM: BOX BOUNDS oo rr rr
-0.35 0.35
-0.25 0.25
-0.25 0.25
ITEM: SURFS f_save[1] f_save[2] f_save[3] f_save[4] f_save[5] f_save[6] f_save[7] f_save[8] 
0.00566087 -4.24742e-08 -7.21451e-10 -1.90779e-09 -0.00566087 0 0 3.35265 
0 0 0 0 0 0 0 0 
0 0 0 0 0 0 0 0 
0 0 0 0 0 0 0 0 
0 0 0 0 0 0 0 0 
0 0 0 0 0 0 0 0 
0 0 0 0 0 0 0 0 
0 0 0 0 0 0 0 0 
0.00787789 -1.871e-08 0 0 -0.00787789 0 0 0 
0 0 0 0 0 0 0 0 
0 0 0 0 0 0 0 0 
0.0109379 -2.66611e-08 0 0 -0.0109379 0 0 0 
0.0236382 -5.76181e-08 0 0 -0.0236382 0 0 0 
0.00730438 -1.73479e-08 0 0 -0.00730438 0 0 0 
0.0112195 -2.66465e-08 0 0 -0.0112195 0 0 0 
0 0 0 0 0 0 0 0 
0 0 0 0 0 0 0 0 
0.0104795 -2.48888e-08 0 0 -0.0104795 0 0 0 
0 0 0 0 0 0 0 0 
0 0 0 0 0 0 0 0 
0.0082181 -1.9518e-08 0 0 -0.0082181 0 0 0 
0 0 0 0 0 0 0 0 
0 0 0 0 0 0 0 0 
0.00401835 -9.54359e-09 0 0 -0.00401835 0 0 0 
0 0 0 0 0 0 0 0 
0 0 0 0 0 0 0 0 
0 0 0 0 0 0 0 0 
0.00512353 -1.21684e-08 0 0 -0.00512353 0 0 0 
0 0 0 0 0 0 0 0 
0.00661652 -1.65414e-08 0 0 -0.00661652 0 0 6.31815e-15 
0.00393223 -1.86781e-07 -9.9999e-11 -7.1096e-10 -0.00393223 0 0 0.371738 
0.00345934 -2.97504e-07 7.68563e-10 -2.01228e-09 -0.00345934 0 0 0.543982 
0.00247838 -1.17723e-07 0 0 -0.00247838 0 0 0 
0.00322618 -8.06544e-09 0 0 -0.00322618 0 0 0 
0 0 0 0 0 0 0 0 
0.000645596 1.53329e-09 0 0 0.000645596 0 0 0 
0.000661043 1.56998e-09 0 0 0.000661043 0 0 0 
0.00191557 2.3346e-09 0 0 0.00191557 0 0 0 
0 0 0 0 0 0 0 0 
0 0 0 0 0 0 0 0 
0 0 0 0 0 0 0 0 
0 0 0 0 0 0 0 0 
0 0 0 0 0 0 0 0 
0 0 0 0 0 0 0 0 
0.000495568 1.17698e-09 0 0 0.000495568 0 0 0 
0 0 0 0 0 0 0 0 
0 0 0 0 0 0 0 0 
0.0006185 1.46894e-09 0 0 0.0006185 0 0 0 
0 0 0 0 0 0 0 0 
0 0 0 0 0 0 0 0 
0 0 0 0 0 0 0 0 
0 0 0 0 0 0 0 0 
0 0 0 0 0 0 0 0 
0 0 0 0 0 0 0 0 
0 0 0 0 0 0 0 0 
0.00113116 2.75721e-09 0 0 0.00113116 0 0 0 
0.00112775 2.74888e-09 0 0 0.00112775 0 0 0 
0.000666463 1.6245e-09 -9.68792e-10 1.84879e-09 0.000666463 0 0 -0.132878 
0 0 0 0 0 0 0 0 
0 0 0 0 0 0 0 0 
0.000395437 9.6388e-10 0 0 0.000395437 0 0 0 
0 0 0 0 0 0 0 0 
1.21016e-05 -2.7989e-07 2.40347e-07 2.49978e-07 0 8.55714e-06 8.55714e-06 0.0174785 
1.15373e-05 -1.82753e-07 -1.00598e-07 -1.09881e-07 0 -8.15807e-06 -8.15808e-06 0.0243361 
0.000318505 -9.65833e-09 1.81548e-07 1.75684e-09 0 0.000318505 0 0.0265635 
0.00023662 -1.32574e-08 -1.34873e-07 -7.6651e-09 0 -0.00023662 0 0.0582463 
0.000224125 6.19672e-09 1.27751e-07 4.03497e-10 0 0.000224125 0 0.0027012 
0.000353964 -1.14563e-08 -2.01759e-07 -3.10872e-09 0 -0.000353964 0 0.0364623 
0.000312054 -3.82682e-10 1.77871e-07 7.65986e-09 0 0.000312054 0 -0.00429228 
0.000323753 -3.32253e-09 -5.58658e-09 1.84539e-07 0 0 0.000323753 0.00271562 
0.000270469 -6.20911e-09 3.25623e-09 1.58224e-07 0 0 0.000270469 0.0432489 
0.000212102 6.40462e-09 6.83865e-10 -1.2408e-07 0 0 -0.000212102 -0.00135699 
0.000302171 1.07917e-08 5.99118e-09 1.7677e-07 0 0 0.000302171 -0.0036571 
0.000184997 -6.17343e-09 1.05448e-07 1.22435e-09 0 0.000184997 0 0.0281825 
9.498e-05 -1.3043e-08 5.55633e-08 -3.8173e-09 0 9.498e-05 0 0.042872 
0.000111272 -2.11624e-08 -4.14611e-09 -6.34249e-08 0 0 -0.000111272 0.0810718 
0.000202507 1.34405e-09 1.15429e-07 -2.20658e-10 0 0.000202507 0 0.00179407 
0.000210587 -2.04104e-08 -1.20035e-07 6.42151e-10 0 -0.000210587 0 0.0696754 
0.000264553 -1.80536e-08 -5.22931e-09 1.50795e-07 0 0 0.000264553 0.0636844 
0.000216934 2.06102e-09 -1.80339e-09 1.23652e-07 0 0 0.000216934 0.00185572 
0.000193871 -1.57051e-08 2.53928e-09 -1.10506e-07 0 0 -0.000193871 0.0455576 
0.000190412 1.70418e-09 -1.08535e-07 -7.35458e-09 0 -0.000190412 0 0.0013021 
0.00017192 -1.40003e-08 9.79945e-08 -2.59211e-09 0 0.00017192 0 0.051064 
0.000154247 1.61295e-09 3.35804e-09 -8.79209e-08 0 0 -0.000154247 -0.00346822 
0.000180708 -3.97105e-09 1.05714e-07 -2.84409e-09 0 0.000180708 0 -0.000969927 
0.0001873 3.51234e-09 -1.82231e-09 1.09571e-07 0 0 0.0001873 -0.000895881 
0.000242868 1.66429e-09 -1.42078e-07 -2.17684e-09 0 -0.000242868 0 0.00118375 
0.000116696 3.77914e-09 -2.26599e-09 -6.65166e-08 0 0 -0.000116696 0.000374297 
0.000154577 7.3811e-10 -9.04278e-08 2.87667e-10 0 -0.000154577 0 -0.00179855 
0.00020249 -1.29454e-08 5.10788e-09 1.18457e-07 0 0 0.00020249 0.043653 
0.000167189 -8.21397e-09 1.97765e-09 -9.52975e-08 0 0 -0.000167189 0.0393103 
0.000152835 -2.94345e-09 -8.94083e-08 -7.06343e-09 0 -0.000152835 0 0.0268285 
0.000225356 -9.56715e-10 -1.28453e-07 -1.12107e-08 0 -0.000225356 0 0.00242947 
0.00020407 -8.20669e-10 -1.49815e-10 5.96906e-08 0 0 0.00020407 -0.000303805 
9.76836e-05 -7.47471e-09 -1.06792e-10 5.56797e-08 0 0 9.76836e-05 0.0291127 
0.000217304 -2.27978e-08 2.54773e-09 -1.23863e-07 0 0 -0.000217304 0.0768254 
0.000106234 -1.33555e-08 -4.95961e-10 6.05535e-08 0 0 0.000106234 0.0467075 
0.000113975 -1.32614e-08 -6.49658e-08 1.29365e-09 0 -0.000113975 0 0.0463469 
0.000198948 2.46626e-09 5.16942e-10 -1.134e-07 0 3.90084e-11 -0.000198948 -0.0015767 
0.000208679 1.87853e-09 -1.18947e-07 7.10089e-09 0 -0.000208679 0 -0.000520976 
0.00010141 -2.37702e-08 -5.78037e-08 1.81396e-09 0 -0.00010141 0 0.071172 
8.46857e-05 6.33451e-11 -1.83951e-09 4.82709e-08 0 0 8.46857e-05 -0.000571287 
0.000234076 -1.8288e-09 1.33424e-07 4.76505e-09 0 0.000234076 0 0.0192436 
8.96061e-05 3.08579e-09 2.18592e-09 -5.10755e-08 0 0 -8.96061e-05 -0.00531581 
0.000170175 -1.04728e-08 -9.69996e-08 2.31029e-09 0 -0.000170175 0 0.0304267 
0.00022775 -4.16669e-09 6.06373e-09 -1.29817e-07 0 0 -0.00022775 0.0161053 
0.000300839 -5.66176e-11 2.14348e-08 6.65856e-10 -5.7231e-07 0.000300838 0 -0.0218188 
0.000513963 1.78818e-11 9.36234e-09 -4.7662e-11 -3.48587e-05 0.000512249 -2.33205e-05 -0.0337354 
0.000165357 -2.92311e-11 2.66558e-09 -9.24928e-11 -1.81213e-06 0.000165248 -5.73392e-06 0 
0.000504405 -2.81985e-10 9.07144e-09 -4.7713e-10 -1.56502e-05 0.000503467 -2.64808e-05 -1.82636e-17 
7.02505e-05 -2.03673e-11 1.15804e-09 -1.30986e-11 -1.23527e-06 7.02351e-05 -7.94427e-07 0 
0 0 0 0 0 0 0 0 
0.000479978 -2.76057e-10 1.15721e-08 -5.63389e-10 -2.53958e-07 0.000479936 6.39292e-06 -0.00263259 
0.000340959 -1.21047e-10 6.31285e-09 -5.65068e-10 -1.30481e-05 0.000340643 6.74212e-06 -0.0252323 
0.000372756 -7.25565e-11 6.00887e-09 2.08502e-10 -4.49795e-06 0.000372504 1.29255e-05 -1.785e-17 
0.000352431 -1.35597e-10 2.51106e-08 1.38382e-09 -1.67877e-07 0.000352431 0 -0.0281825 
0.000107691 -1.45969e-11 0 7.67296e-09 -2.04868e-07 0 0.00010769 -3.17525e-18 
0.000115464 -2.01303e-09 1.44686e-09 1.90065e-09 -7.83118e-06 5.23906e-06 0.000115079 0.00566938 
9.62436e-05 -1.70135e-11 5.38341e-11 1.55146e-09 -1.05472e-06 3.33735e-06 9.618e-05 5.10005e-18 
2.84455e-05 2.63626e-10 1.92982e-10 5.11531e-10 -8.82583e-07 1.49336e-06 2.83926e-05 -0.00123977 
0.000313451 -3.08925e-10 -1.00722e-09 5.17531e-09 -5.51169e-06 3.54466e-06 0.000313383 0.013018 
0 0 0 0 0 0 0 0 
0.000221606 -2.82486e-12 -7.11106e-11 5.33848e-09 -1.17252e-07 -2.95162e-06 0.000221586 1.17381e-18 
0.000198217 -1.4017e-10 -7.24275e-11 3.65937e-09 -7.58553e-06 -3.91954e-06 0.000198033 -3.11645e-17 
0 0 0 0 0 0 0 0 
0.000181179 2.24024e-09 -1.04864e-09 1.29101e-08 -8.63028e-08 0 0.000181179 0.00268884 
0.00023141 1.77059e-09 -1.64914e-08 1.44918e-09 -4.40228e-07 -0.000231409 0 -0.00862222 
0.000189979 -2.33955e-10 -3.43796e-09 1.56515e-10 -1.2885e-05 -0.000189345 8.62007e-06 6.79635e-18 
0.000421402 3.72952e-10 -6.78794e-09 5.24735e-10 -4.6181e-06 -0.000421124 1.46126e-05 0.0107731 
0.000272138 -1.89713e-10 -4.88457e-09 4.19236e-10 -8.44366e-06 -0.000271632 1.4287e-05 0.00831791 
0 0 0 0 0 0 0 0 
0 0 0 0 0 0 0 0 
0.000431796 -5.50419e-12 -1.04019e-08 -1.38558e-10 -2.28464e-07 -0.000431757 -5.75117e-06 1.96347e-17 
0.000108765 -7.69133e-11 -2.00795e-09 -3.9742e-11 -4.16229e-06 -0.000108664 -2.15071e-06 -4.45207e-18 
0 0 0 0 0 0 0 0 
0.000326305 -3.5277e-10 -2.32491e-08 1.88902e-09 -1.55432e-07 -0.000326305 0 0.00302136 
0.000370849 6.19984e-10 1.22376e-10 -2.64243e-08 -7.05496e-07 0 -0.000370849 0.000275514 
0.000439695 -5.41474e-10 -3.62246e-10 -7.95696e-09 -2.98216e-05 -1.99506e-05 -0.000438228 2.09554e-17 
0.000238673 -1.56742e-08 -1.26226e-09 -3.63685e-09 -2.61558e-06 -8.27622e-06 -0.000238515 1.42261 
5.38667e-05 -2.47172e-10 4.30212e-10 -9.87323e-10 -1.67133e-06 -2.82795e-06 -5.37665e-05 -0.000747273 
0.000309584 -3.13125e-10 3.07558e-10 -5.10355e-09 -5.44369e-06 -3.50093e-06 -0.000309517 -0.0341399 
0 0 0 0 0 0 0 0 
0.000190982 -1.41871e-08 1.36609e-09 -4.57586e-09 -1.01049e-07 2.54372e-06 -0.000190965 1.17372 
0.00055542 -3.92768e-10 2.02948e-10 -1.02539e-08 -2.12553e-05 1.09829e-05 -0.000554905 -2.89385e-17 
0.000148713 -2.89469e-11 8.31832e-11 -2.39728e-09 -1.79449e-06 5.15673e-06 -0.000148613 -2.54999e-18 
0.000159988 -4.28774e-10 4.61637e-10 -1.1399e-08 -7.62088e-08 0 -0.000159988 -0.00308684 
0 0 0 0 0 0 0 0 
0 0 0 0 0 0 0 0 
0 0 0 0 0 0 0 0 
0 0 0 0 0 0 0 0 
0 0 0 0 0 0 0 0 
0 0 0 0 0 0 0 0 
0 0 0 0 0 0 0 0 
0 0 0 0 0 0 0 0 
0 0 0 0 0 0 0 0 
0 0 0 0 0 0 0 0 
0 0 0 0 0 0 0 0 
0 0 0 0 0 0 0 0 
0 0 0 0 0 0 0 0 
0 0 0 0 0 0 0 0 
0 0 0 0 0 0 0 0 
0 0 0 0 0 0 0 0 
0.000196317 -8.03344e-10 4.53359e-09 -1.21745e-10 -3.42415e-05 0.000193238 -5.18922e-06 2.80525e-17 
0 0 0 0 0 0 0 0 
0.000695659 -1.13926e-09 5.13776e-09 -4.16812e-10 -0.000150129 0.000677042 -5.49265e-05 0 
0.000568576 -1.82752e-09 9.71505e-09 -8.06084e-10 -0.000104765 0.000556927 -4.62097e-05 -3.20695e-16 
0.000675659 -1.72102e-09 1.27812e-08 -1.94752e-09 -0.000131719 0.000658307 -7.61351e-05 -0.0015669 
0.000703827 -1.07449e-09 4.83402e-09 -7.55926e-10 -0.000166361 0.000679319 -7.88753e-05 0.0499369 
0.000123635 -3.37127e-10 1.52147e-09 -2.2913e-10 -2.64619e-05 0.000119423 -1.79849e-05 -9.6861e-18 
0.000192781 -5.80734e-10 2.50975e-09 -3.45621e-10 -4.30736e-05 0.000186151 -2.56351e-05 0 
0.000179445 -4.73831e-11 2.09966e-09 -5.35064e-10 -4.18065e-05 0.000170426 -3.75207e-05 0.0260129 
0.000466804 -1.44455e-09 5.14564e-09 -9.41333e-10 -8.95885e-05 0.000457595 -2.20672e-05 0.0452184 
0.000141945 -4.03635e-10 1.59252e-09 -3.71082e-10 -3.40173e-05 0.000134213 -3.12738e-05 -1.73333e-17 
0.000124808 -4.18523e-10 2.34469e-09 8.87327e-11 -2.1916e-05 0.00012278 4.64651e-06 -2.15399e-18 
0.00041992 -1.43358e-08 3.06338e-09 4.23545e-10 -8.80354e-05 0.000408631 4.00417e-05 1.56414 
0.000417016 -1.18529e-09 9.64709e-09 1.42136e-09 -7.34821e-05 0.000410201 1.54132e-05 0.0305429 
0.000943222 -2.20717e-09 8.40153e-09 1.69572e-09 -0.000235222 0.000895366 0.000180715 -2.80558e-16 
0.00102555 -1.6475e-09 6.67295e-09 1.01037e-09 -0.000243205 0.000985065 0.000149151 -3.88623e-16 
0.000155084 -1.38129e-09 1.42575e-09 1.74437e-09 -3.52704e-05 0.000148937 2.50013e-05 -0.00646406 
0.000810282 -2.27191e-09 1.06392e-08 1.31687e-09 -0.000167988 0.000786673 9.73709e-05 -1.17098e-16 
0.000713653 -1.49785e-09 7.36628e-09 6.29331e-10 -0.000141707 0.000696904 5.95393e-05 -1.55663e-17 
0.000157126 -3.07551e-10 3.06429e-09 -1.34645e-09 -2.82071e-05 0.000154383 7.67352e-06 0.0309784 
0.000816639 -2.69585e-09 1.43824e-08 -1.01253e-09 -0.000159786 0.000792288 0.000116817 0.0318845 
5.01514e-05 -1.20689e-10 5.64197e-10 9.51675e-11 -1.03508e-05 4.83881e-05 8.162e-06 0 
0.000417134 -2.81141e-09 9.01226e-10 4.53815e-09 -7.5135e-05 3.81608e-05 0.000408533 -0.0386167 
0.000429795 -7.26983e-10 3.59647e-10 2.95448e-09 -0.000101983 5.04522e-05 0.000414461 0 
0.000564917 2.23167e-09 -1.35142e-09 1.05945e-08 -0.000102944 3.71257e-05 0.000554216 0.0180616 
0.000216686 -7.89372e-10 2.95427e-10 4.03583e-09 -4.14868e-05 1.55267e-05 0.00021211 -2.16187e-18 
0.000831712 -1.88883e-09 5.27992e-10 9.3129e-09 -0.000165066 4.61416e-05 0.00081386 -2.87578e-17 
0.000402609 -1.63679e-10 -2.03179e-10 6.02842e-09 -8.35604e-05 3.16175e-05 0.000392571 0.03258 
0.000702062 -1.40325e-08 1.20622e-09 4.68096e-09 -0.000154471 0.000154994 0.000667088 1.81407 
0.000134682 -2.21274e-10 1.21754e-10 9.09336e-10 -3.15776e-05 1.73752e-05 0.00012977 -1.17403e-17 
0.000304953 -1.187e-09 9.83687e-10 5.67376e-09 -5.45827e-05 1.13462e-05 0.000299814 -0.0040017 
0.00116552 -2.51468e-09 3.5481e-09 1.09196e-08 -0.000276351 0.000319354 0.00108631 -0.0180799 
0.000386523 -7.56761e-10 3.53112e-10 2.9351e-09 -8.35928e-05 8.86091e-05 0.000366825 -0.0691394 
0.000321612 -1.03788e-09 -5.61059e-11 6.66744e-09 -6.03693e-05 -1.92082e-05 0.000315311 -0.019986 
0.000658981 -1.11464e-09 -5.51428e-10 4.52994e-09 -0.000156365 -7.73555e-05 0.00063547 1.86094e-16 
0.000625517 -1.14487e-09 -1.37262e-09 4.46995e-09 -0.000148759 -0.000178352 0.000580804 5.34476e-18 
0.0002772 -4.26558e-10 -1.50022e-10 1.84922e-09 -6.21116e-05 -2.18449e-05 0.000269267 5.98957e-18 
0.000471753 -1.23626e-09 -1.25987e-09 4.89946e-09 -0.00011199 -0.000114128 0.000443829 -5.96195e-17 
0.000316974 -7.3733e-10 -7.04925e-10 3.39526e-09 -6.59243e-05 -6.3027e-05 0.000303569 -3.67777e-18 
0.000350288 -7.55171e-10 -3.1525e-10 3.71518e-09 -6.95349e-05 -2.90277e-05 0.000342088 0 
0.000192777 -1.71416e-09 5.33799e-10 3.15004e-09 -3.73248e-05 -1.86153e-05 0.000188211 -0.00982613 
0.000388861 -9.41849e-09 -6.73841e-10 2.58171e-08 -6.75155e-05 -4.16524e-06 0.000382932 0.148241 
0.00026051 -1.02435e-09 -1.18247e-09 6.14269e-09 -4.62015e-05 -1.85643e-05 0.000255708 0.00476219 
0.000645492 -2.74162e-09 -1.4956e-08 -2.10613e-09 -0.000112586 -0.000635368 1.70622e-05 -0.00721223 
0.000599993 -1.80219e-09 -7.12478e-09 1.43802e-09 -0.000144394 -0.000570847 0.000115216 -9.228e-17 
0 0 0 0 0 0 0 0 
0.000229445 -7.37484e-10 -3.92045e-09 3.2529e-10 -4.22771e-05 -0.000224744 1.86476e-05 -1.65064e-17 
0.000413593 -5.7401e-10 -7.96359e-09 8.12832e-10 -8.06293e-05 -0.000402972 4.66048e-05 0.00156002 
0 0 0 0 0 0 0 0 
0.000234972 -6.40719e-10 -2.89159e-09 4.35467e-10 -5.02914e-05 -0.000226967 3.41808e-05 -1.93722e-17 
0 0 0 0 0 0 0 0 
0.000561867 -8.61431e-09 -4.77273e-09 4.25495e-10 -0.000130901 -0.000533626 0.000117482 1.12755 
0.000104072 -2.29593e-10 -1.1727e-09 5.65526e-11 -1.99735e-05 -0.000102019 4.9198e-06 7.15692e-18 
0.000950733 -2.70351e-09 -1.06665e-08 2.48547e-09 -0.000227844 -0.000898945 0.000209469 -6.23999e-17 
0.000599591 -1.05596e-09 -1.14318e-08 -5.00026e-10 -0.000105287 -0.000589853 -2.23224e-05 -0.00821064 
0 0 0 0 0 0 0 0 
0.000269994 -2.34233e-10 -6.33607e-09 -1.06392e-09 -4.75756e-05 -0.000265582 -9.97916e-06 0.0194383 
0.000788286 -1.84462e-09 -7.02148e-09 -1.41717e-09 -0.000196584 -0.000748291 -0.000151031 1.75349e-17 
0 0 0 0 0 0 0 0 
0.00040523 -1.16747e-09 -4.92991e-09 -8.27562e-10 -9.21603e-05 -0.000389166 -6.53277e-05 4.87067e-18 
0.000375799 -1.05368e-09 -4.93431e-09 -6.10747e-10 -7.79108e-05 -0.000364849 -4.51594e-05 0 
0.000370604 -1.80502e-09 -3.71337e-09 8.07306e-10 -7.35894e-05 -0.000361906 -3.09187e-05 -0.0316355 
2.40152e-05 -8.23197e-11 -4.50553e-10 -2.23944e-11 -4.31117e-06 -2.3596e-05 -1.17282e-06 5.38558e-19 
0.000279402 -9.69982e-10 -4.41585e-09 -3.01289e-09 -5.46688e-05 -0.000271071 -3.99673e-05 0.00272567 
0.000564514 -1.3585e-09 -6.3507e-09 -1.07122e-09 -0.000116511 -0.000544665 -9.1873e-05 2.39893e-16 
0 0 0 0 0 0 0 0 
0 0 0 0 0 0 0 0 
2.71845e-05 -8.67991e-11 -3.13033e-11 -4.67299e-10 -4.95378e-06 -1.78654e-06 -2.66696e-05 5.86897e-19 
0.000176327 -6.35894e-10 -1.36694e-09 -3.20294e-09 -3.37596e-05 -1.26348e-05 -0.000172603 0.0104903 
0.000675929 -1.69205e-08 -2.00518e-09 -4.35874e-09 -0.000134148 -3.74991e-05 -0.000661421 1.99185 
0.000691628 -3.06254e-09 -4.0472e-09 -9.40992e-09 -0.000143546 -5.43147e-05 -0.000674384 0.0206314 
0.000828006 -1.85543e-09 -3.48947e-09 -8.44312e-09 -0.000182182 -0.000182799 -0.000786758 -0.00481308 
0 0 0 0 0 0 0 0 
0.000474494 -1.62285e-09 -3.37344e-10 -8.91407e-09 -8.49283e-05 -1.76542e-05 -0.000466498 -3.22898e-17 
0 0 0 0 0 0 0 0 
0 0 0 0 0 0 0 0 
7.49313e-05 -2.94545e-10 9.37177e-11 -1.53842e-09 -1.40653e-05 4.47526e-06 -7.34632e-05 -3.92851e-18 
0.00137442 -2.32478e-09 1.1501e-09 -9.44798e-09 -0.000326126 0.000161338 -0.00132538 -1.10791e-15 
0.000310105 -5.67577e-10 6.80489e-10 -2.21601e-09 -7.37483e-05 8.84195e-05 -0.000287938 -1.33619e-17 
0 0 0 0 0 0 0 0 
7.97704e-05 -2.09045e-10 2.13036e-10 -8.28468e-10 -1.89368e-05 1.92983e-05 -7.50486e-05 -5.58932e-18 
0.000138951 -3.23221e-10 3.09016e-10 -1.48837e-09 -2.88991e-05 2.7629e-05 -0.000133075 -1.83889e-18 
0.000341071 -1.71511e-10 6.25571e-10 -3.70499e-09 -6.77053e-05 2.82639e-05 -0.000333087 -0.0193133 
0.00117829 4.75289e-10 3.15236e-09 -2.07912e-08 -0.000228137 0.000113781 -0.00115039 -0.000957295 
0.000338943 -3.27879e-09 1.00154e-09 -2.33678e-08 -5.88486e-05 3.63055e-06 -0.000333776 0.00810872 
0.000979326 -5.3801e-09 -4.32237e-10 -2.31698e-08 -0.000173683 6.97879e-05 -0.000961272 -0.0118805 
0.000513074 -2.0054e-10 2.17013e-09 -3.36742e-11 -2.88681e-05 0.000482119 0.000173127 -0.0134997 
0.00165599 -3.72191e-10 7.28463e-09 2.23695e-09 -8.0785e-05 0.00158115 0.000485536 6.02656e-17 
0 0 0 0 0 0 0 0 
0.000225711 -7.38521e-11 2.17071e-09 9.13748e-10 -7.07416e-06 0.000207929 8.75264e-05 -3.94016e-18 
0.000333726 -1.15621e-11 9.31077e-09 7.24727e-10 -4.13172e-07 0.00033272 2.58981e-05 4.40976e-18 
0.00110084 -2.80591e-10 3.78413e-09 1.96391e-09 -7.22945e-05 0.000974982 0.000506002 1.27178e-16 
0.000408514 -8.56038e-10 2.2765e-09 2.82166e-09 -2.1164e-05 0.000375833 0.000158698 0.017677 
0.00405109 -8.97884e-10 1.80082e-08 1.04334e-08 -0.00017461 0.00350202 0.00202897 -1.0239e-15 
0.000309809 -1.26697e-10 2.29754e-09 9.04734e-10 -1.58753e-05 0.000287885 0.000113364 0 
0 0 0 0 0 0 0 0 
0.000234297 -6.48895e-11 2.29293e-09 8.72136e-10 -6.19525e-06 0.000218914 8.32661e-05 -9.81805e-19 
0.000239095 -3.39763e-11 1.83916e-09 5.44341e-10 -4.23472e-06 0.000229228 6.78453e-05 -3.58879e-17 
0 0 0 0 0 0 0 0 
0.000174747 -2.17055e-11 2.88143e-09 4.74453e-10 -1.29883e-06 0.000172421 2.83906e-05 3.63057e-17 
0.000513744 -5.64288e-09 1.24366e-08 2.601e-09 -1.86764e-06 0.000507246 8.14282e-05 0.439227 
0.000621181 -2.28178e-10 4.17334e-09 2.97223e-09 -2.76369e-05 0.000505475 0.000359997 -1.55692e-16 
0 0 0 0 0 0 0 0 
0.000262014 -4.9343e-11 1.2992e-09 5.00712e-10 -9.27963e-06 0.000244332 9.41657e-05 -3.8679e-18 
0 0 0 0 0 0 0 0 
0 0 0 0 0 0 0 0 
0.000375812 -1.00201e-10 4.05104e-09 -9.60709e-10 -9.04209e-06 0.000365564 -8.66939e-05 -7.42382e-18 
0.000776025 -2.11571e-09 8.33229e-09 -2.16108e-09 -1.5442e-05 0.000758719 -0.000162236 -0.000964875 
0 0 0 0 0 0 0 0 
0.0063119 -3.23909e-09 4.16749e-08 -2.4679e-08 -0.000421176 0.00541895 -0.00320898 -2.05387e-15 
0.000463849 -5.53968e-10 7.72797e-09 -7.99582e-10 -1.55931e-06 0.000459807 -6.10826e-05 -0.000587637 
0.00405094 -5.78332e-10 3.24493e-08 -8.5228e-09 -6.98196e-05 0.00391747 -0.00102892 1.96651e-15 
0.0003389 -9.31484e-10 3.25135e-09 -1.51114e-09 -8.8787e-06 0.00031837 -0.000115823 -0.00804899 
0.00119381 4.43034e-10 1.06079e-08 -6.15967e-09 -4.54261e-05 0.00103029 -0.000601341 0.0162781 
0.000174721 -7.80706e-11 1.50558e-09 -9.60507e-10 -7.63074e-06 0.000147158 -9.38815e-05 -8.04101e-18 
0 0 0 0 0 0 0 0 
0.00185246 -3.75833e-10 7.09484e-09 -2.41821e-09 -9.27664e-05 0.00175121 -0.000596885 -6.49796e-16 
0.000917219 -2.10376e-10 3.499e-09 -1.27577e-09 -5.17284e-05 0.000860355 -0.000313694 3.03428e-17 
0.000558882 9.26919e-10 1.07928e-08 -2.13805e-09 -1.52705e-06 0.000557413 -4.0468e-05 0.0385516 
0.000220716 2.8172e-10 2.06229e-09 -6.42519e-10 -5.49692e-06 0.000214486 -5.17813e-05 0.0327846 
0.00625927 -1.59544e-09 2.15161e-08 -1.11666e-08 -0.000411065 0.00554364 -0.00287708 -2.71314e-15 
0 0 0 0 0 0 0 0 
0.00443285 -2.23317e-10 1.30115e-09 -4.35855e-09 -0.000217371 0.00126651 -0.00424251 2.40233e-16 
0.000679695 -1.04421e-10 1.30883e-09 -7.28252e-09 -1.72361e-05 0.000201499 -0.000648912 0.0125355 
0.000657244 -4.681e-09 2.17528e-09 -1.24893e-08 -8.04216e-06 8.80673e-05 -0.000651267 0.699262 
0.000976452 -5.11032e-10 4.81936e-09 -5.64929e-09 -6.70404e-05 0.000632234 -0.00074111 6.90716e-16 
0.00180276 -4.16517e-10 2.80469e-09 -6.64215e-09 -0.000103971 0.000700103 -0.00165801 7.70087e-17 
0 0 0 0 0 0 0 0 
0 0 0 0 0 0 0 0 
0.000399902 6.54365e-10 6.34652e-10 -3.20204e-09 -1.63526e-05 0.000153923 -0.00036873 0.0472371 
0 0 0 0 0 0 0 0 
0.00122545 -9.82402e-10 -1.97547e-09 -1.43627e-08 -2.57784e-05 0.00033238 -0.00117923 1.77055 
0 0 0 0 0 0 0 0 
0.00117083 -3.45555e-09 1.10965e-08 -1.73829e-08 -1.24747e-05 0.000261861 -0.0011411 1.27747 
0 0 0 0 0 0 0 0 
0 0 0 0 0 0 0 0 
0.00122493 -2.37554e-09 5.02504e-09 -1.90727e-08 -1.8909e-05 0.000375994 -0.00116564 -0.00146012 
0 0 0 0 0 0 0 0 
7.24396e-05 1.88781e-13 -1.75645e-12 -4.21729e-10 3.24264e-08 -3.01699e-07 -7.2439e-05 -1.41309e-17 
0.000388254 -1.98526e-10 -1.61201e-09 -3.32932e-09 -1.45359e-05 -9.87643e-05 -0.0003752 0.0660109 
0.000142889 1.33845e-09 -1.26579e-09 -2.32937e-09 -1.00893e-06 -1.85592e-05 -0.000141675 0.000367699 
0.000394307 -8.85164e-11 -1.05738e-09 -4.16823e-09 -8.11468e-06 -9.69348e-05 -0.00038212 -7.54187e-17 
0.000702125 -6.75927e-09 -3.22043e-09 -6.8414e-09 -1.74626e-05 -0.000190422 -0.000675584 0.948402 
0.000667488 5.72589e-10 -1.28759e-09 -3.29273e-09 -2.74886e-05 -0.000266086 -0.000611542 0.111605 
0.000514969 -2.66017e-10 -2.18954e-09 -3.25989e-09 -3.48049e-05 -0.000286474 -0.000426515 -1.07637e-17 
0 0 0 0 0 0 0 0 
0.000595568 -1.31286e-10 -1.82674e-09 -1.00424e-08 -7.65966e-06 -0.000106578 -0.000585904 -9.59954e-17 
0.000943452 -2.65944e-10 -3.81939e-09 -9.07341e-09 -2.54775e-05 -0.000365898 -0.000869236 -2.36439e-17 
0 0 0 0 0 0 0 0 
0.000399253 -9.90313e-10 -1.39499e-09 -2.80612e-09 -1.6326e-05 -0.000153674 -0.000368132 -0.144706 
0.000497796 -4.68766e-10 -1.62111e-09 -2.9734e-09 -2.44801e-05 -0.000269682 -0.0004177 -0.00325893 
0 0 0 0 0 0 0 0 
0 0 0 0 0 0 0 0 
0.000243743 2.32856e-10 2.85758e-09 -4.54118e-09 -1.0563e-06 -2.56524e-05 -0.000242387 0.0718671 
0.000281783 -1.03507e-10 -1.34828e-09 -1.89313e-09 -1.25368e-05 -0.000163303 -0.000229296 1.99286e-17 
0 0 0 0 0 0 0 0 
0.000132867 -5.65958e-11 -6.54127e-10 -6.29044e-10 -8.27004e-06 -9.5584e-05 -9.19188e-05 -1.80321e-17 
0 0 0 0 0 0 0 0 
0.000595912 -7.69638e-10 -5.75927e-09 -3.0982e-09 -1.76085e-05 -0.000568857 -0.000176641 0.0471606 
0.00042381 -6.8375e-11 -7.14623e-09 -1.29992e-09 -3.98937e-06 -0.000416949 -7.58444e-05 3.29997e-18 
0.000308531 -1.59377e-10 -1.95308e-09 -1.31181e-09 -2.08524e-05 -0.000255535 -0.000171634 -8.61097e-17 
0.00119803 -4.99446e-10 -8.11027e-09 -4.46653e-09 -6.4531e-05 -0.00104789 -0.000577099 3.40143e-16 
0.000641952 -2.50465e-10 -5.68071e-09 -3.3156e-09 -2.44272e-05 -0.000554024 -0.000323362 0 
0 0 0 0 0 0 0 0 
0.000325653 -1.06651e-10 -3.19204e-09 -1.2735e-09 -1.01011e-05 -0.000302323 -0.000120616 6.2334e-17 
0 0 0 0 0 0 0 0 
0 0 0 0 0 0 0 0 
0.000442049 -4.95082e-11 -3.74552e-09 -7.13181e-10 -5.73937e-06 -0.00043421 -8.26774e-05 3.81486e-17 
0.00044955 -3.99601e-09 -7.45565e-09 -7.64461e-10 -3.49617e-06 -0.000441072 -8.68227e-05 0.681603 
0.00154158 -1.73155e-09 -3.64038e-08 -9.30073e-10 -4.24212e-08 -0.00154144 -2.08629e-05 0.0247747 
0 0 0 0 0 0 0 0 
0 0 0 0 0 0 0 0 
7.49998e-05 -9.38508e-10 -1.90832e-09 5.21471e-10 -8.97036e-08 -7.47065e-05 -6.62552e-06 0.0276718 
0.00013513 0 -1.01348e-09 6.45233e-12 1.68037e-23 -0.000135128 8.60294e-07 0 
0.000305761 -1.81175e-11 -8.53056e-09 6.63998e-10 -6.47428e-07 -0.000304839 2.37279e-05 3.16033e-17 
0.000442953 -5.1761e-11 -4.09734e-09 7.32518e-10 -5.50798e-06 -0.000436006 7.79486e-05 -1.75086e-17 
0.00102097 -2.69766e-10 -9.6537e-09 4.19726e-09 -2.61558e-05 -0.000935996 0.000406955 0 
3.18404e-05 -9.12174e-12 -4.4714e-10 1.73522e-10 -6.05442e-07 -2.96782e-05 1.15173e-05 0 
0 0 0 0 0 0 0 0 
0 0 0 0 0 0 0 0 
0.000599233 -1.34753e-10 -9.70688e-09 2.22755e-09 -8.10719e-06 -0.000583998 0.000134017 -2.00456e-16 
0.000295886 -8.45773e-11 -2.74245e-09 1.3229e-09 -8.21573e-06 -0.000266398 0.000128504 0 
0.000204181 -6.77782e-11 -1.92628e-09 8.91569e-10 -6.51652e-06 -0.000185202 8.57197e-05 1.18645e-17 
0.000211041 1.01515e-09 -1.40551e-09 6.16424e-10 -7.47436e-06 -0.000196799 7.58459e-05 0.0551627 
0 0 0 0 0 0 0 0 
0.00241965 -9.81435e-09 -1.58511e-08 1.01359e-08 -0.000113049 -0.00220385 0.000992447 3.31654 
0.00031846 -1.27865e-09 -1.61608e-09 2.21484e-09 -1.87365e-05 -0.000286138 0.00013853 0.0753371 
0.000282104 -5.25752e-09 -7.96781e-09 -5.04141e-10 -6.94079e-07 -0.000280591 2.91642e-05 0.219237 
3.06519e-05 -5.80468e-12 -3.57001e-10 1.27626e-10 -4.69245e-07 -2.88596e-05 1.03172e-05 1.66261e-18 
0.000764081 -1.6125e-09 -4.07379e-09 2.37887e-09 -4.31999e-05 -0.000584969 0.000489658 -0.0234076 
0.00690644 -1.54438e-09 -9.26197e-09 2.57924e-08 -0.00038859 -0.00233045 0.00648975 1.32479e-15 
0.000306126 -8.88953e-11 -7.55019e-10 2.37876e-09 -1.08971e-05 -9.25527e-05 0.000291597 -3.2271e-16 
0.00226094 -6.29106e-09 -9.18105e-09 2.02627e-08 -5.63087e-05 -0.000530429 0.00219712 2.82065 
0.000146034 -1.37252e-09 -8.64446e-10 2.76799e-09 -1.00354e-06 -1.35816e-05 0.000145398 0.0233067 
0.000184279 -7.11349e-13 -8.7991e-12 1.38209e-09 -9.48446e-08 -1.17319e-06 0.000184275 0 
0.000547447 -1.39538e-10 -9.7665e-10 1.88184e-09 -3.59519e-05 -0.000251634 0.000484857 2.11964e-17 
0 0 0 0 0 0 0 0 
0.00168979 -5.5713e-10 -5.31471e-09 1.04006e-08 -8.05118e-05 -0.000768038 0.00150301 -7.60876e-16 
0.00123642 -4.50944e-10 -3.61072e-09 9.1693e-09 -5.6519e-05 -0.000452549 0.00114923 3.29954e-16 
0.000508982 -1.64229e-10 -1.5056e-09 3.74863e-09 -2.06751e-05 -0.000189543 0.00047192 0 
0.00256061 -6.02494e-10 -9.5315e-09 2.50592e-08 -5.75279e-05 -0.000910097 0.00239273 3.0164e-15 
0.000226946 -5.2108e-11 -7.49151e-10 2.27403e-09 -4.93806e-06 -7.09939e-05 0.0002155 -1.24739e-16 
0.00108338 -2.06221e-10 -3.03914e-09 1.15709e-08 -1.86722e-05 -0.000275176 0.00104768 0 
0 0 0 0 0 0 0 0 
0 0 0 0 0 0 0 0 
0.00164359 -4.83766e-10 -4.0745e-09 2.05105e-08 -3.8013e-05 -0.000320162 0.00161166 -1.46095e-15 
0.000145656 -1.33891e-11 -5.97452e-10 3.5543e-09 -5.41096e-07 -2.41449e-05 0.00014364 1.32988e-17 
0 0 0 0 0 0 0 0 
0.00070919 -1.59394e-10 9.57996e-10 3.11971e-09 -3.45967e-05 0.000207935 0.000677139 -8.92822e-18 
0.0011567 -5.00097e-09 5.38117e-09 1.79898e-08 -8.19477e-06 0.00022784 0.00113401 0.573826 
0.000162409 -3.97573e-11 3.62859e-10 2.04548e-09 -3.10759e-06 2.83625e-05 0.000159883 3.2152e-17 
0.00244306 -1.36551e-09 6.95253e-09 3.02939e-08 -5.65029e-05 0.000475895 0.0023956 -0.0792517 
9.24202e-05 -3.95266e-11 4.77338e-10 8.17836e-10 -3.85436e-06 4.65468e-05 7.97498e-05 -1.00278e-18 
0 0 0 0 0 0 0 0 
0 0 0 0 0 0 0 0 
0 0 0 0 0 0 0 0 
0.000272247 -3.14586e-10 3.65597e-10 4.56279e-09 -3.80348e-06 6.91537e-05 0.00026329 0.0726658 
0.000547261 -1.79228e-10 2.14013e-09 5.36423e-09 -1.6975e-05 0.000202695 0.000508056 1.55835e-17 
8.45973e-05 -2.67244e-11 1.93446e-10 6.68226e-10 -3.24748e-06 2.3507e-05 8.12008e-05 -1.24962e-18 
0.000911104 -4.07109e-10 5.00868e-09 7.85103e-09 -3.97915e-05 0.000489557 0.000767372 0 
0.000371907 2.08008e-09 4.88951e-10 3.10216e-09 -1.70005e-05 0.000136123 0.000345682 0.10708 
0.000735913 -6.62233e-10 2.1281e-09 5.39812e-09 -4.24424e-05 0.000285793 0.000676823 -0.00653337 
0.000383772 -4.10876e-11 1.79201e-09 1.11588e-08 -1.39519e-06 6.08504e-05 0.000378914 8.93929e-17 
0.00051821 -1.25588e-10 1.18305e-09 4.90037e-09 -1.2906e-05 0.000121575 0.000503581 8.45419e-18 
0.000847927 -2.16129e-10 1.51271e-09 2.91473e-09 -5.56859e-05 0.00038975 0.000750982 0 
0.000228095 -2.94777e-09 2.15601e-09 -6.84521e-08 0 0 -0.000228095 0.00644179 
0 0 0 0 0 0 0 0 
0.000488146 -1.56763e-09 1.2943e-08 1.04477e-09 0 0.000485299 5.26418e-05 -0.0110033 
0.000881961 -7.97627e-09 1.70678e-08 1.61119e-08 0 0.000665327 0.000578961 0.460056 
0.00140861 0 3.16902e-08 3.37892e-08 0 0.000963613 0.00102744 -1.626e-16 
0.000371082 0 1.19372e-08 2.53674e-09 0 0.000362976 7.71352e-05 0 
0.00132543 -5.317e-09 5.67809e-09 -4.32353e-08 0 0.000209492 -0.00130877 0.381055 
0.00059844 0 1.36548e-08 -1.41732e-08 0 0.000415206 -0.000430969 1.25077e-18 
0.000233253 0 7.52412e-09 -1.49372e-09 0 0.000228788 -4.54197e-05 -2.50154e-18 
0.000767912 -3.434e-09 1.62705e-08 -1.47024e-08 0 0.000342801 -0.000687151 0.870221 
0.000401521 -8.51967e-10 9.20197e-09 -5.42585e-09 0 0.000352368 -0.000192499 0.0183073 
0.000494934 -3.77145e-10 8.79215e-11 -7.98401e-09 0 -3.16471e-05 -0.000493922 0.0342067 
0 0 0 0 0 0 0 0 
0 0 0 0 0 0 0 0 
0.000292124 0 -6.34562e-09 -4.48018e-09 0 -0.00023864 -0.000168486 -6.18771e-18 
0.000490178 0 -1.10278e-08 -1.17582e-08 0 -0.000335325 -0.000357535 -2.40774e-17 
0.000571466 -6.63931e-10 -1.85388e-08 -3.17441e-09 0 -0.000558984 -0.000118788 -0.00369587 
0.00104144 0 -5.41338e-09 3.38193e-08 0 -0.000164606 0.00102835 7.40457e-16 
0.00172205 -3.0024e-09 -3.93664e-08 4.07133e-08 0 -0.00119478 0.00124014 0.603112 
0.000478137 -1.32089e-09 -1.56753e-08 1.79339e-09 0 -0.000468984 9.31044e-05 -0.00171325 
0.00104915 -9.20629e-09 -8.12027e-09 2.67548e-08 0 -0.000370966 0.000981373 0.590282 
0.0011864 0 -2.60131e-08 1.78478e-08 0 -0.000978275 0.000671204 -2.04194e-16 
0.000673509 5.81413e-10 -1.95874e-09 -2.0498e-09 0 -0.000673006 2.60244e-05 -0.261453 
0 0 0 0 0 0 0 0 
0.00127762 -1.45412e-08 1.34829e-08 -2.13115e-08 -0.000638196 0.00059175 -0.000935337 0 
0.00203428 -3.45967e-08 3.26381e-08 7.84203e-09 -0.00101616 0.00172381 0.000366323 1.33599 
1.97707e-05 -2.25019e-10 5.65044e-11 3.86133e-10 -9.87583e-06 2.47992e-06 1.69469e-05 4.51331e-19 
0.00106373 -1.08897e-08 -1.84128e-08 1.15545e-08 -0.000531352 -0.000808702 0.000441796 0.0122359 
0.000326424 -3.22124e-09 -4.86936e-09 -4.65329e-09 -0.000163055 -0.000213323 -0.000185632 0.0164834 
0 0 0 0 0 0 0 0 
0 0 0 0 0 0 0 0 
0 0 0 0 0 0 0 0 
0 0 0 0 0 0 0 0 
0 0 0 0 0 0 0 0 
0 0 0 0 0 0 0 0 
0 0 0 0 0 0 0 0 
0 0 0 0 0 0 0 0 
0 0 0 0 0 0 0 0 
0 0 0 0 0 0 0 0 
0 0 0 0 0 0 0 0 
0 0 0 0 0 0 0 0 
0 0 0 0 0 0 0 0 
0 0 0 0 0 0 0 0 
0 0 0 0 0 0 0 0 
0 0 0 0 0 0 0 0 
0 0 0 0 0 0 0 0 
0 0 0 0 0 0 0 0 
0 0 0 0 0 0 0 0 
0.0210883 3.38964e-09 2.09658e-08 9.16418e-09 0.00309032 0.0191144 0.00835493 -4.80021e-15 
0 0 0 0 0 0 0 0 
0 0 0 0 0 0 0 0 
0 0 0 0 0 0 0 0 
0 0 0 0 0 0 0 0 
0.000441229 7.09217e-11 4.68284e-10 9.95138e-11 6.46589e-05 0.000426932 9.07261e-05 3.75016e-17 
0 0 0 0 0 0 0 0 
0 0 0 0 0 0 0 0 