ITEM: TIMESTEP
360
ITEM: NUMBER OF SURFS
6916
ITEM: BOX BOUNDS oo rr rr
-0.35 0.35
-0.25 0.25
-0.25 0.25
ITEM: SURFS f_save[1] f_save[2] f_save[3] f_save[4] f_save[5] f_save[6] f_save[7] f_save[8] 
0.00415501 -3.11756e-08 2.14766e-09 -2.99325e-10 -0.00415501 0 0 3.10526 
0 0 0 0 0 0 0 0 
0 0 0 0 0 0 0 0 
0 0 0 0 0 0 0 0 
0.00756919 -1.84499e-08 0 0 -0.00756919 0 0 0 
0.00585945 -1.42824e-08 0 0 -0.00585945 0 0 0 
0 0 0 0 0 0 0 0 
0.00644917 -1.53168e-08 0 0 -0.00644917 0 0 0 
0.00917109 -2.17814e-08 0 0 -0.00917109 0 0 0 
0 0 0 0 0 0 0 0 
0 0 0 0 0 0 0 0 
0.00638042 -1.55523e-08 0 0 -0.00638042 0 0 0 
0.0137889 -3.36106e-08 0 0 -0.0137889 0 0 0 
0.00426089 -1.01196e-08 0 0 -0.00426089 0 0 0 
0.0137468 -3.26488e-08 0 0 -0.0137468 0 0 0 
0 0 0 0 0 0 0 0 
0 0 0 0 0 0 0 0 
0.00611306 -1.45185e-08 0 0 -0.00611306 0 0 0 
0 0 0 0 0 0 0 0 
0 0 0 0 0 0 0 0 
0.00755017 -1.79317e-08 0 0 -0.00755017 0 0 0 
0 0 0 0 0 0 0 0 
0 0 0 0 0 0 0 0 
0.00234403 -5.56709e-09 0 0 -0.00234403 0 0 0 
0.00314971 -7.48059e-09 0 0 -0.00314971 0 0 0 
0 0 0 0 0 0 0 0 
0 0 0 0 0 0 0 0 
0.00298872 -7.09822e-09 0 0 -0.00298872 0 0 0 
0 0 0 0 0 0 0 0 
0.00385964 -9.64915e-09 0 0 -0.00385964 0 0 3.68559e-15 
0.00390326 -1.85405e-07 -7.50125e-10 -2.03462e-09 -0.00390326 0 0 0.409234 
0.0045679 -3.9284e-07 3.15687e-09 -2.39413e-09 -0.0045679 0 0 0.824465 
0.00244077 -1.15937e-07 0 0 -0.00244077 0 0 0 
0.00619222 -1.54806e-08 0 0 -0.00619222 0 0 0 
0 0 0 0 0 0 0 0 
0.000376598 8.94422e-10 0 0 0.000376598 0 0 0 
0.000385609 9.15822e-10 0 0 0.000385609 0 0 0 
0.00111742 1.36185e-09 0 0 0.00111742 0 0 0 
0 0 0 0 0 0 0 0 
0 0 0 0 0 0 0 0 
0 0 0 0 0 0 0 0 
0 0 0 0 0 0 0 0 
0.00527879 1.25371e-08 0 0 0.00527879 0 0 0 
0 0 0 0 0 0 0 0 
0.000289081 6.8657e-10 0 0 0.000289081 0 0 0 
0 0 0 0 0 0 0 0 
0 0 0 0 0 0 0 0 
0.000360792 8.56881e-10 0 0 0.000360792 0 0 0 
0.000367841 8.73624e-10 0 0 0.000367841 0 0 0 
0 0 0 0 0 0 0 0 
0.000653879 1.59383e-09 0 0 0.000653879 0 0 0 
0 0 0 0 0 0 0 0 
0 0 0 0 0 0 0 0 
0 0 0 0 0 0 0 0 
0 0 0 0 0 0 0 0 
0.000659844 1.60837e-09 0 0 0.000659844 0 0 0 
0.000657852 1.60351e-09 0 0 0.000657852 0 0 0 
0.00038877 9.47626e-10 -5.65128e-10 1.07846e-09 0.00038877 0 0 -0.0775119 
0.000689581 1.63776e-09 0 0 0.000689581 0 0 0 
0 0 0 0 0 0 0 0 
0.000230672 5.62264e-10 0 0 0.000230672 0 0 0 
0 0 0 0 0 0 0 0 
1.25362e-05 -3.07946e-07 2.50986e-07 2.56946e-07 0 8.86443e-06 8.86443e-06 0.0187626 
1.32335e-05 -1.85499e-07 -1.15443e-07 -1.2598e-07 0 -9.35751e-06 -9.35751e-06 0.0245978 
0.000244208 -7.11462e-09 1.39198e-07 1.93546e-09 0 0.000244208 0 0.0168634 
0.000246327 -9.90163e-09 -1.40406e-07 -1.18501e-09 0 -0.000246327 0 0.0412779 
0.000188848 3.69484e-09 1.07643e-07 2.07176e-09 0 0.000188848 0 0.000307147 
0.000291306 -5.48158e-09 -1.66044e-07 -1.26885e-09 0 -0.000291306 0 0.0198374 
0.000209115 2.40374e-09 1.19196e-07 3.44027e-09 0 0.000209115 0 -0.00171961 
0.000261013 -1.09122e-08 -1.6598e-09 1.48777e-07 0 0 0.000261013 0.0325412 
0.000200603 -6.80417e-09 1.98121e-09 1.17353e-07 0 0 0.000200603 0.0413784 
0.000197299 5.03914e-09 1.80335e-09 -1.1542e-07 0 0 -0.000197299 -0.000975592 
0.000225496 7.25767e-09 4.365e-09 1.31915e-07 0 0 0.000225496 -0.00133522 
0.00013323 -2.81681e-09 7.59409e-08 8.27514e-10 0 0.00013323 0 0.0164999 
7.54225e-05 -6.39884e-09 4.41222e-08 -4.06783e-09 0 7.54225e-05 0 0.0257458 
0.000194505 -9.53855e-09 3.55987e-09 -1.10868e-07 0 0 -0.000194505 0.049242 
0.000216347 -7.41384e-10 1.23318e-07 -1.00378e-09 0 0.000216347 0 0.00131183 
0.000165215 -1.39429e-08 -9.41725e-08 2.7856e-09 0 -0.000165215 0 0.0502211 
0.000208947 -1.44628e-08 -3.464e-09 1.191e-07 0 0 0.000208947 0.0539998 
0.000215065 3.13605e-09 -4.64628e-09 1.22587e-07 0 0 0.000215065 0.0041002 
0.000141331 -9.17141e-09 9.44091e-10 -8.05585e-08 0 0 -0.000141331 0.0274226 
0.000139309 -1.18205e-09 -7.94064e-08 -5.48476e-09 0 -0.000139309 0 0.009078 
0.000164353 -6.74094e-09 9.36815e-08 -1.40909e-09 0 0.000164353 0 0.0294079 
0.000191671 2.92162e-09 1.28198e-09 -1.09253e-07 0 0 -0.000191671 -0.000760455 
0.000172333 -7.85449e-09 1.00815e-07 -2.43241e-09 0 0.000172333 0 0.00808501 
0.000131426 1.79652e-09 -2.58093e-09 7.68842e-08 0 0 0.000131426 -0.00028452 
0.000214212 3.17636e-09 -1.25314e-07 -1.35371e-09 0 -0.000214212 0 -0.00100153 
9.95073e-05 2.2045e-09 -1.32182e-09 -5.67192e-08 0 0 -9.95073e-05 0.00021834 
0.00020203 -2.69548e-09 -1.18188e-07 -1.30677e-09 0 -0.00020203 0 0.00973455 
0.000199907 -1.53225e-08 3.7146e-09 1.16946e-07 0 0 0.000199907 0.0450554 
0.000117665 -4.07455e-09 1.5822e-09 -6.70688e-08 0 0 -0.000117665 0.0223954 
0.000105085 -3.71405e-10 -6.14749e-08 -3.54593e-09 0 -0.000105085 0 0.0152797 
0.00022289 8.47376e-10 -1.27047e-07 -6.8293e-09 0 -0.00022289 0 0.00240653 
0.000139808 2.07904e-10 4.13814e-10 4.08937e-08 0 0 0.000139808 -0.00113187 
0.000135431 -1.12679e-08 -2.17069e-09 7.71958e-08 0 0 0.000135431 0.0433766 
0.000177891 -1.21548e-08 3.5003e-09 -1.01398e-07 0 0 -0.000177891 0.0453089 
0.000134226 -6.9948e-09 -7.51639e-10 7.65089e-08 0 0 0.000134226 0.0262153 
0.000102005 -7.70896e-09 -5.8143e-08 1.69386e-09 0 -0.000102005 0 0.0279592 
0.000148977 -6.93666e-09 -7.13981e-10 -8.49169e-08 0 2.92105e-11 -0.000148977 0.0324501 
0.000150216 1.12955e-09 -8.56231e-08 4.04421e-09 0 -0.000150216 0 -0.000226044 
8.82301e-05 -1.43903e-08 -5.02912e-08 1.39423e-09 0 -8.82301e-05 0 0.040587 
7.49127e-05 8.70015e-10 -6.46077e-10 4.27002e-08 0 0 7.49127e-05 -0.00082826 
0.000205842 1.53479e-09 1.1733e-07 3.15127e-09 0 0.000205842 0 0.0104145 
0.000110641 -1.34648e-09 1.55037e-10 -6.30654e-08 0 0 -0.000110641 0.00624029 
0.000218545 -6.92571e-09 -1.24571e-07 7.39731e-10 0 -0.000218545 0 0.0168853 
0.000174933 -1.69867e-08 2.03103e-09 -9.97116e-08 0 0 -0.000174933 0.0535287 
0.00024844 -6.3675e-10 1.77002e-08 1.10069e-09 -4.72626e-07 0.000248439 0 -0.0062641 
0.000547119 1.05652e-10 9.96077e-09 -3.02149e-10 -3.71075e-05 0.000545295 -2.48249e-05 -0.0409601 
0.000295076 -4.11864e-10 4.77375e-09 4.40744e-10 -3.23371e-06 0.000294881 -1.02321e-05 0.000448556 
0.000394686 6.3473e-10 7.08574e-09 -1.11573e-09 -1.2246e-05 0.000393951 -2.07206e-05 -0.0279149 
0.000194357 -5.6349e-11 3.20388e-09 -3.6239e-11 -3.41755e-06 0.000194315 -2.19789e-06 7.27641e-18 
0.000496667 -1.57529e-11 9.31252e-10 0 -8.40031e-06 0.000496596 0 -1.27954e-17 
0.000480462 1.17942e-09 1.15971e-08 -1.50972e-09 -2.54214e-07 0.00048042 6.39937e-06 0.00811579 
0.00056662 -5.73109e-10 1.04542e-08 1.97382e-10 -2.16839e-05 0.000566094 1.12043e-05 -0.050984 
0.000217441 -4.23246e-11 3.50518e-09 1.21626e-10 -2.6238e-06 0.000217294 7.53989e-06 -1.04125e-17 
0.000219053 -7.95553e-11 1.56075e-08 8.07226e-10 -1.04344e-07 0.000219053 0 -0.0164398 
0.000150382 1.23165e-09 -9.31861e-11 1.07171e-08 -2.86083e-07 0 0.000150382 0.00243429 
0.000274077 -1.42884e-09 1.01431e-09 4.84968e-09 -1.85889e-05 1.24359e-05 0.000273163 0.00330714 
0.000220008 -2.82194e-10 4.79683e-10 3.53151e-09 -2.41104e-06 7.62899e-06 0.000219862 -0.00666296 
0.000124022 9.37245e-11 2.14192e-10 2.23043e-09 -3.84803e-06 6.51102e-06 0.000123791 -0.000723197 
0.000291282 -2.11645e-10 -5.67325e-10 4.80644e-09 -5.12187e-06 3.29396e-06 0.000291219 0.00759386 
0 0 0 0 0 0 0 0 
0.000319651 -4.07465e-12 -1.02572e-10 7.70037e-09 -1.69128e-07 -4.25749e-06 0.000319622 1.26363e-17 
0.000206958 -3.73373e-11 1.14338e-10 3.82869e-09 -7.92005e-06 -4.09239e-06 0.000206766 0.00901699 
0.000286095 -5.56881e-11 -1.60028e-10 4.61189e-09 -3.45224e-06 -9.92051e-06 0.000285902 -2.23125e-17 
0.000215988 8.62591e-10 -1.72241e-09 1.53895e-08 -1.02884e-07 0 0.000215988 0.00638628 
0.000192626 1.59766e-09 -1.37277e-08 2.20059e-09 -3.66448e-07 -0.000192626 0 -8.5726e-05 
0.000233962 -8.2852e-09 -3.67282e-09 5.63609e-10 -1.58681e-05 -0.000233182 1.06158e-05 0.762535 
0.000351351 1.989e-10 -5.66084e-09 3.65126e-10 -3.85042e-06 -0.000351119 1.21835e-05 0.00628431 
0.000243431 -1.58008e-10 -4.37231e-09 3.24659e-10 -7.55294e-06 -0.000242977 1.27799e-05 0.00485212 
0.000287614 -8.33862e-11 -4.74116e-09 5.36271e-11 -5.05736e-06 -0.000287551 3.25247e-06 -2.03739e-17 
0 0 0 0 0 0 0 0 
0.000293039 -3.73543e-12 -7.0593e-09 -9.40326e-11 -1.55048e-07 -0.000293013 -3.90305e-06 1.24495e-17 
0.000225963 -1.59791e-10 -4.17161e-09 -8.25658e-11 -8.64734e-06 -0.000225753 -4.46819e-06 1.61017e-16 
0 0 0 0 0 0 0 0 
0.00019817 -2.06048e-10 -1.41195e-08 1.10193e-09 -9.43962e-08 -0.00019817 0 0.00176246 
0.000340348 -4.9925e-09 1.37819e-10 -2.42404e-08 -6.4747e-07 0 -0.000340347 0.123552 
0.00037447 -4.61151e-10 -3.0851e-10 -6.77661e-09 -2.53978e-05 -1.69911e-05 -0.000373221 2.01531e-17 
0.000139226 -9.14331e-09 -7.36319e-10 -2.12149e-09 -1.52576e-06 -4.82779e-06 -0.000139134 0.829857 
7.24043e-05 -1.67095e-10 2.12191e-10 -1.31298e-09 -2.24649e-06 -3.80116e-06 -7.22695e-05 -0.000435909 
0.000303781 -7.06853e-10 -5.40837e-10 -4.99132e-09 -5.34164e-06 -3.4353e-06 -0.000303715 -0.0266187 
0 0 0 0 0 0 0 0 
0.000111406 -8.27578e-09 7.96885e-10 -2.66925e-09 -5.89453e-08 1.48384e-06 -0.000111396 0.684668 
0.000358017 -2.53173e-10 1.30818e-10 -6.60951e-09 -1.37009e-05 7.07941e-06 -0.000357685 -2.07763e-17 
0.000114141 -2.22175e-11 6.38451e-11 -1.83997e-09 -1.37731e-06 3.95791e-06 -0.000114064 -1.4875e-18 
0.000127158 -2.51266e-10 2.69288e-10 -9.05987e-09 -6.05704e-08 0 -0.000127158 -0.00180066 
0 0 0 0 0 0 0 0 
0 0 0 0 0 0 0 0 
0 0 0 0 0 0 0 0 
0 0 0 0 0 0 0 0 
0 0 0 0 0 0 0 0 
0 0 0 0 0 0 0 0 
0 0 0 0 0 0 0 0 
0 0 0 0 0 0 0 0 
0 0 0 0 0 0 0 0 
0 0 0 0 0 0 0 0 
0 0 0 0 0 0 0 0 
0 0 0 0 0 0 0 0 
0 0 0 0 0 0 0 0 
0 0 0 0 0 0 0 0 
0 0 0 0 0 0 0 0 
0 0 0 0 0 0 0 0 
0.000295328 -1.2085e-09 6.82005e-09 -1.83145e-10 -5.15108e-05 0.000290696 -7.80634e-06 1.6364e-17 
9.67979e-05 -2.9075e-10 1.14945e-09 -2.31999e-10 -2.32953e-05 9.20958e-05 -1.85881e-05 1.68219e-18 
0.000522814 -1.18916e-10 3.9618e-09 -1.08866e-09 -0.000112828 0.000508823 -4.12794e-05 0.0822522 
0.000618031 -1.98648e-09 1.05601e-08 -8.76198e-10 -0.000113877 0.000605368 -5.0229e-05 -1.87072e-16 
0.000512593 -1.44853e-09 9.67772e-09 -1.39304e-09 -9.99293e-05 0.00049943 -5.77604e-05 -0.000914023 
0.000410565 -6.26785e-10 2.81985e-09 -4.40957e-10 -9.7044e-05 0.000396269 -4.60106e-05 0.0291299 
8.17802e-05 -2.22998e-10 1.0064e-09 -1.51561e-10 -1.75036e-05 7.89943e-05 -1.18964e-05 -6.12108e-18 
0.000112456 -3.38761e-10 1.46402e-09 -2.01612e-10 -2.51263e-05 0.000108588 -1.49538e-05 0 
0.000411099 -8.69869e-10 4.65819e-09 -1.06801e-09 -9.57763e-05 0.000390437 -8.59577e-05 0.0151742 
0.000327019 -9.63361e-10 3.61817e-09 -5.78843e-10 -6.2761e-05 0.000320567 -1.54591e-05 0.0263774 
0.000323737 -1.41691e-09 3.57342e-09 -5.58225e-10 -7.7584e-05 0.000306103 -7.13269e-05 -0.0301876 
0.000131585 9.93626e-11 2.56163e-09 2.75355e-10 -2.31061e-05 0.000129448 4.89883e-06 0.00764868 
0.000244954 -8.36255e-09 1.78697e-09 2.47068e-10 -5.1354e-05 0.000238368 2.33577e-05 0.912416 
0.000356471 3.36846e-10 8.48806e-09 1.22153e-09 -6.28135e-05 0.000350645 1.31754e-05 0.000332901 
0.00113716 -2.661e-09 1.0129e-08 2.04438e-09 -0.000283587 0.00107947 0.000217873 -1.50873e-16 
0.000598236 -9.61041e-10 3.89255e-09 5.89382e-10 -0.00014187 0.000574621 8.70049e-05 -2.26697e-16 
0.00054684 -3.42029e-09 5.94255e-09 2.74457e-09 -0.000124366 0.000525163 8.81568e-05 -0.0446948 
0.000517974 -1.45232e-09 6.80111e-09 8.41811e-10 -0.000107387 0.000502883 6.22446e-05 -7.00812e-17 
0.000416298 -8.73745e-10 4.297e-09 3.6711e-10 -8.26626e-05 0.000406527 3.47313e-05 -9.08035e-18 
0.000214716 -6.54018e-10 4.08744e-09 -6.8768e-10 -3.85455e-05 0.000210968 1.0486e-05 0.0398792 
0.000476373 -1.57258e-09 8.38976e-09 -5.90642e-10 -9.32087e-05 0.000462168 6.81431e-05 0.0185993 
2.9255e-05 -7.04018e-11 3.29115e-10 5.55144e-11 -6.03798e-06 2.82264e-05 4.76117e-06 0 
0.000389231 -2.34089e-09 5.02375e-10 4.31816e-09 -7.01091e-05 3.56082e-05 0.000381205 -0.0179423 
0.000401529 -6.79172e-10 3.35995e-10 2.76017e-09 -9.52757e-05 4.71341e-05 0.000387203 0 
0.000671776 2.09045e-10 -3.94232e-10 1.20632e-08 -0.000122416 4.41484e-05 0.000659051 0.010536 
0.0001264 -4.60467e-10 1.72333e-10 2.35423e-09 -2.42006e-05 9.05723e-06 0.000123731 -1.26109e-18 
0.000550168 -1.24944e-09 3.49261e-10 6.16038e-09 -0.000109189 3.05221e-05 0.00053836 -1.99208e-17 
0.00057089 -1.11686e-09 2.67947e-10 8.31506e-09 -0.000118487 4.4833e-05 0.000556657 0.019005 
0.000409536 -8.18565e-09 7.03628e-10 2.73056e-09 -9.01084e-05 9.04134e-05 0.000389135 1.05821 
7.85644e-05 -1.29077e-10 7.10229e-11 5.30446e-10 -1.84203e-05 1.01355e-05 7.56989e-05 -6.84851e-18 
0.000392301 -1.42574e-09 7.26255e-10 7.33773e-09 -7.02168e-05 1.45961e-05 0.00038569 -0.00233432 
0.00087346 -1.05123e-09 1.96919e-09 8.5981e-09 -0.000207102 0.000239329 0.000814102 -0.0316463 
0.000225472 -4.41444e-10 2.05982e-10 1.71214e-09 -4.87625e-05 5.16886e-05 0.000213981 -0.0403313 
0.000487888 -1.78579e-09 -4.08295e-10 1.00544e-08 -9.15808e-05 -2.9139e-05 0.000478329 -0.0116585 
0.000877834 -1.06012e-08 -7.24222e-10 3.79244e-09 -0.000208294 -0.000103046 0.000846514 2.05934 
0.000364885 -6.67839e-10 -8.00697e-10 2.60747e-09 -8.67759e-05 -0.000104039 0.000338802 3.11778e-18 
0.0001617 -2.48825e-10 -8.75129e-11 1.07871e-09 -3.62318e-05 -1.27429e-05 0.000157073 3.49392e-18 
0.000440325 -2.14597e-10 -1.30625e-09 4.77656e-09 -0.000104529 -0.000106525 0.000414261 -0.0173768 
0.000418894 -7.82479e-10 -3.86511e-10 4.64182e-09 -8.71217e-05 -8.32928e-05 0.000401178 -0.00808729 
0.000572209 -1.2336e-09 -5.14973e-10 6.06889e-09 -0.000113588 -4.74178e-05 0.000558813 4.41881e-18 
0.000112454 -9.99925e-10 3.11383e-10 1.83752e-09 -2.17728e-05 -1.08589e-05 0.00010979 -0.00573191 
0.000464989 -1.37459e-08 -1.26732e-09 3.04284e-08 -8.07331e-05 -4.98068e-06 0.0004579 0.221718 
0.000383985 -2.01771e-09 -1.39997e-09 8.98731e-09 -6.80998e-05 -2.73632e-05 0.000376906 -0.0140087 
0.000443915 -1.875e-09 -1.02803e-08 -1.18679e-09 -7.74273e-05 -0.000436953 1.17339e-05 -0.00420713 
0.000349996 -1.05128e-09 -4.15612e-09 8.38847e-10 -8.42297e-05 -0.000332994 6.72096e-05 -5.383e-17 
0.000451855 -7.39991e-10 -3.33716e-09 2.70734e-10 -9.75143e-05 -0.000439763 3.56767e-05 3.16198e-17 
0.000643974 -2.06986e-09 -1.10034e-08 9.12978e-10 -0.000118657 -0.00063078 5.23375e-05 -1.9395e-16 
0.000376678 -8.43077e-10 -7.18551e-09 7.6792e-10 -7.34327e-05 -0.000367004 4.24451e-05 0.000910013 
8.32557e-05 -1.39922e-10 -5.71357e-10 6.63399e-11 -1.96789e-05 -8.03567e-05 9.33017e-06 -1.68734e-18 
0.000670819 -1.90876e-09 -8.34481e-09 5.30947e-10 -0.000143577 -0.000647967 9.75824e-05 -0.0157141 
0.000233012 -9.39555e-09 -1.17233e-09 -6.74825e-10 -5.20625e-05 -0.000224998 3.09848e-05 1.0633 
0.000327755 -5.02502e-09 -2.78409e-09 2.48206e-10 -7.63592e-05 -0.000311282 6.85312e-05 0.657739 
6.07089e-05 -1.33929e-10 -6.84075e-10 3.2989e-11 -1.16512e-05 -5.95112e-05 2.86988e-06 4.17487e-18 
0.000725746 -7.39133e-10 -8.70458e-09 9.25204e-10 -0.000173926 -0.000686214 0.000159899 -0.029288 
0.000349762 -6.15974e-10 -6.66856e-09 -2.91682e-10 -6.14177e-05 -0.000344081 -1.30214e-05 -0.00478954 
8.84266e-05 -4.36532e-10 -1.20107e-09 -9.26812e-11 -1.85384e-05 -8.60493e-05 -8.43196e-06 -5.77718e-05 
0.000336987 -8.76172e-10 -7.82437e-09 -7.75738e-10 -5.93803e-05 -0.00033148 -1.24552e-05 0.011339 
0.000459833 -1.07603e-09 -4.09586e-09 -8.26685e-10 -0.000114674 -0.000436503 -8.81012e-05 1.02287e-17 
0.000623203 -1.00115e-09 -4.055e-09 -6.13979e-10 -0.00014779 -0.000598602 -9.0636e-05 0 
0.000236384 -6.81027e-10 -2.87578e-09 -4.82745e-10 -5.37602e-05 -0.000227014 -3.81078e-05 2.84122e-18 
0.000312016 -8.74847e-10 -4.09683e-09 -5.07088e-10 -6.46873e-05 -0.000302925 -3.74947e-05 -1.06453e-17 
0.000216185 -1.05293e-09 -2.16613e-09 4.70928e-10 -4.29272e-05 -0.000211112 -1.80359e-05 -0.018454 
0.000465842 -1.59682e-09 -8.73973e-09 -4.34402e-10 -8.36272e-05 -0.000457709 -2.27501e-05 1.16239e-17 
0.000513709 -1.77053e-09 -8.54935e-09 -2.63826e-09 -0.000100514 -0.000498391 -7.3484e-05 0.00158997 
0.0003293 -7.92456e-10 -3.70458e-09 -6.24881e-10 -6.79646e-05 -0.000317721 -5.35926e-05 1.39938e-16 
3.55458e-05 -7.7258e-11 -3.92391e-11 -4.20076e-10 -6.40258e-06 -3.25185e-06 -3.48129e-05 0 
0 0 0 0 0 0 0 0 
0.000537146 -1.71509e-09 -6.18531e-10 -9.23349e-09 -9.78831e-05 -3.53007e-05 -0.000526971 4.14252e-17 
0.000102857 -3.70938e-10 -7.97381e-10 -1.86838e-09 -1.96931e-05 -7.37027e-06 -0.000100685 0.00611935 
0.000547543 -1.02184e-08 -1.26698e-09 -4.25859e-09 -0.000108668 -3.03765e-05 -0.000535791 1.16191 
0.000477874 -2.01269e-09 -2.44646e-09 -6.55188e-09 -9.91815e-05 -3.75282e-05 -0.000465959 0.012035 
0.000483004 -1.08233e-09 -2.03552e-09 -4.92515e-09 -0.000106273 -0.000106633 -0.000458942 -0.00280763 
0.000462651 -7.6011e-10 -4.18236e-10 -3.1237e-09 -0.000108474 -5.96856e-05 -0.000445777 0 
0.000496226 -1.69718e-09 -3.52795e-10 -9.32233e-09 -8.8818e-05 -1.84627e-05 -0.000487863 -2.88815e-17 
0.00015182 -3.62778e-10 -4.19229e-10 -1.42605e-09 -3.59975e-05 -4.1599e-05 -0.000141503 -1.90476e-17 
0.000336365 -8.00961e-09 -1.90368e-10 -9.07293e-10 -7.27453e-05 -7.71106e-05 -0.000319224 1.67551 
0.000232163 -9.12601e-10 2.9037e-10 -4.76654e-09 -4.3579e-05 1.38659e-05 -0.000227614 -4.58326e-18 
0.00132346 -2.64913e-09 1.88161e-09 -8.90243e-09 -0.000314034 0.000155357 -0.00127624 -0.046709 
0.000180895 -3.31087e-10 3.96952e-10 -1.29267e-09 -4.30198e-05 5.1578e-05 -0.000167964 -7.79444e-18 
0.000323969 -4.98526e-10 1.75334e-10 -2.16122e-09 -7.2591e-05 2.55306e-05 -0.000314698 0 
4.65328e-05 -1.21943e-10 1.24271e-10 -4.83273e-10 -1.10464e-05 1.12573e-05 -4.37784e-05 -3.26044e-18 
0.00038484 -8.95197e-10 8.55854e-10 -4.12221e-09 -8.00391e-05 7.65215e-05 -0.000368564 -2.7568e-16 
0.000198958 -1.00048e-10 3.64917e-10 -2.16124e-09 -3.94948e-05 1.64873e-05 -0.000194301 -0.0112661 
0.000687339 2.77252e-10 1.83888e-09 -1.21282e-08 -0.00013308 6.6372e-05 -0.000671058 -0.000558422 
0.000376126 -3.55605e-09 9.43011e-10 -2.59477e-08 -6.53045e-05 4.02884e-06 -0.000370392 0.00576742 
0.000788558 -4.06962e-09 1.2204e-10 -1.86697e-08 -0.000139851 5.61935e-05 -0.00077402 -0.0069303 
0.000483481 -1.58169e-10 1.95376e-09 2.27364e-10 -2.7203e-05 0.000454311 0.000163142 -0.00787485 
0.00134428 -3.02132e-10 5.91342e-09 1.81588e-09 -6.55786e-05 0.00128352 0.000394142 4.55712e-17 
0 0 0 0 0 0 0 0 
0.000217068 -7.10242e-11 2.08759e-09 8.78759e-10 -6.80328e-06 0.000199967 8.41748e-05 2.29843e-18 
0.000194674 -6.74458e-12 5.43128e-09 4.22758e-10 -2.41017e-07 0.000194087 1.51072e-05 2.57236e-18 
0.000642158 -1.63678e-10 2.20741e-09 1.14561e-09 -4.21718e-05 0.000568739 0.000295168 7.41873e-17 
0.00112625 -8.63633e-10 7.79686e-09 4.3775e-09 -5.8348e-05 0.00103615 0.000437522 0.0103116 
0.00236314 -5.23766e-10 1.05048e-08 6.08616e-09 -0.000101856 0.00204285 0.00118356 -5.97277e-16 
0.000364751 -6.4193e-10 2.71973e-09 9.58746e-10 -1.86906e-05 0.00033894 0.000133469 0.0248013 
6.74779e-05 1.39445e-10 1.39794e-10 1.19919e-09 -2.70155e-06 6.3245e-05 2.33674e-05 0.050329 
0.000136673 -3.78522e-11 1.33754e-09 5.08746e-10 -3.61389e-06 0.0001277 4.85719e-05 -5.7272e-19 
0.000139472 -1.98195e-11 1.07284e-09 3.17532e-10 -2.47025e-06 0.000133716 3.95765e-05 -2.09346e-17 
0 0 0 0 0 0 0 0 
0.000278302 2.47854e-10 4.76497e-09 -3.00424e-10 -2.06851e-06 0.000274597 4.52148e-05 -0.0064735 
0.000299684 -3.29168e-09 7.25467e-09 1.51725e-09 -1.08946e-06 0.000295893 4.74998e-05 0.256216 
0.000362356 -1.33104e-10 2.43445e-09 1.7338e-09 -1.61215e-05 0.00029486 0.000209998 -9.08204e-17 
0.000135211 -2.53195e-11 1.5789e-09 5.51347e-10 -2.04682e-06 0.000127638 4.45707e-05 2.13371e-17 
0.000415127 -7.81775e-11 2.05841e-09 7.93311e-10 -1.47023e-05 0.000387112 0.000149193 -2.03065e-17 
8.24174e-05 -1.85237e-11 3.62552e-10 -1.11332e-10 -4.02061e-06 7.86926e-05 -2.41648e-05 0 
0 0 0 0 0 0 0 0 
0.000219224 -5.84506e-11 2.36311e-09 -5.60414e-10 -5.27455e-06 0.000213246 -5.05714e-05 -4.33056e-18 
0.000654571 -1.27889e-09 7.05825e-09 -1.73057e-09 -1.30252e-05 0.000639974 -0.000136845 -0.000562844 
0 0 0 0 0 0 0 0 
0.00368194 -1.88947e-09 2.43104e-08 -1.43961e-08 -0.000245686 0.00316106 -0.00187191 -1.19809e-15 
0.000340652 -3.27093e-10 5.67123e-09 -6.20954e-10 -1.14516e-06 0.000337684 -4.48592e-05 -0.000342788 
0.00236305 -3.3736e-10 1.89288e-08 -4.97163e-09 -4.07281e-05 0.00228519 -0.000600204 1.14713e-15 
0.000318339 -5.76897e-10 3.09898e-09 -1.31892e-09 -8.34003e-06 0.000299055 -0.000108796 -0.00469524 
0.000696389 2.58437e-10 6.18791e-09 -3.59314e-09 -2.64986e-05 0.000601005 -0.000350782 0.00949556 
0.000191587 -8.56067e-11 1.65091e-09 -1.05322e-09 -8.36733e-06 0.000161363 -0.000102944 -4.69059e-18 
0.000160887 -5.44353e-11 8.86174e-10 -6.38926e-10 -8.00655e-06 0.000130342 -9.39757e-05 -7.0585e-18 
0.0010806 -2.19236e-10 4.13865e-09 -1.41062e-09 -5.41137e-05 0.00102154 -0.000348183 -3.79048e-16 
0.000535045 -1.22719e-10 2.04108e-09 -7.442e-10 -3.01749e-05 0.000501874 -0.000182988 1.77e-17 
0.000326015 5.40702e-10 6.29581e-09 -1.2472e-09 -8.9078e-07 0.000325158 -2.36063e-05 0.0224884 
0.000567006 5.81254e-11 5.34729e-09 -1.37532e-09 -1.41212e-05 0.000551 -0.000133023 0.0191243 
0.00384017 -9.78826e-10 1.32005e-08 -6.85089e-09 -0.000252195 0.00340111 -0.00176514 -1.58267e-15 
0.000713858 -1.64566e-10 1.10301e-09 -2.62956e-09 -4.11294e-05 0.000275672 -0.000657197 -9.59509e-17 
0.00258583 -1.30268e-10 7.59002e-10 -2.54249e-09 -0.0001268 0.000738795 -0.0024748 1.40136e-16 
0.000396489 -6.09123e-11 7.63486e-10 -4.24814e-09 -1.00544e-05 0.000117541 -0.000378532 0.00731238 
0.000383392 -2.73058e-09 1.26892e-09 -7.28542e-09 -4.69126e-06 5.13726e-05 -0.000379906 0.407903 
0.000825958 -4.3227e-10 4.07658e-09 -4.77861e-09 -5.67079e-05 0.000534792 -0.000626888 4.53283e-16 
0.00105161 -2.42968e-10 1.63607e-09 -3.87459e-09 -6.06495e-05 0.000408393 -0.00096717 4.49217e-17 
0 0 0 0 0 0 0 0 
0 0 0 0 0 0 0 0 
0.000233276 3.81713e-10 3.70214e-10 -1.86786e-09 -9.53899e-06 8.97886e-05 -0.000215092 0.027555 
0 0 0 0 0 0 0 0 
0.000714846 -5.73068e-10 -1.15236e-09 -8.37826e-09 -1.50374e-05 0.000193889 -0.000687885 1.03282 
0.00022882 -1.65007e-10 1.25388e-09 -2.25403e-09 -4.709e-06 5.62525e-05 -0.000221748 -0.00146502 
0.000757545 -2.02894e-09 6.75012e-09 -1.13478e-08 -8.07132e-06 0.000169429 -0.000738311 0.745194 
0.000220803 1.11167e-10 1.57974e-09 -3.33085e-09 -1.67497e-06 4.34922e-05 -0.00021647 -0.0162032 
0 0 0 0 0 0 0 0 
0.000768063 -1.39904e-09 3.19587e-09 -1.1946e-08 -1.18564e-05 0.000235758 -0.000730889 -0.000851738 
0.000383642 -6.05406e-09 1.5663e-09 -9.355e-09 -8.83333e-07 5.01819e-05 -0.000380344 0.58285 
0.00043734 1.13973e-12 -1.06042e-11 -2.5461e-09 1.95768e-07 -1.82145e-06 -0.000437336 -1.85468e-17 
0.000852723 -2.63162e-09 -4.13362e-09 -7.07099e-09 -3.19253e-05 -0.000216916 -0.000824053 0.91285 
8.33518e-05 7.80761e-10 -7.38379e-10 -1.3588e-09 -5.88541e-07 -1.08262e-05 -8.26437e-05 0.000214491 
0.000578845 -1.29943e-10 -1.55224e-09 -6.11899e-09 -1.19124e-05 -0.000142301 -0.000560954 -1.91375e-16 
0.000409573 -3.94291e-09 -1.87858e-09 -3.99081e-09 -1.01865e-05 -0.00011108 -0.000394091 0.553235 
0.000389368 3.3401e-10 -7.51095e-10 -1.92076e-09 -1.6035e-05 -0.000155217 -0.000356733 0.0651029 
0.000300399 -1.55177e-10 -1.27723e-09 -1.9016e-09 -2.03029e-05 -0.00016711 -0.0002488 -6.27883e-18 
0 0 0 0 0 0 0 0 
0.000620927 -5.37402e-09 -1.82339e-09 -1.04163e-08 -7.9858e-06 -0.000111116 -0.000610851 0.647877 
0.000770392 -1.04446e-09 -4.04291e-09 -6.9958e-09 -2.08041e-05 -0.000298781 -0.00070979 -0.0053527 
0.000312181 -1.05019e-10 -1.5055e-09 -2.83035e-09 -1.02211e-05 -0.000146525 -0.000275468 7.00601e-18 
0.000232898 -5.77682e-10 -8.13744e-10 -1.63691e-09 -9.52351e-06 -8.96432e-05 -0.000214744 -0.0844118 
0.000290381 -2.73447e-10 -9.4565e-10 -1.73448e-09 -1.42801e-05 -0.000157314 -0.000243658 -0.00190105 
0.000185034 -8.69892e-11 -8.10492e-10 -1.15723e-09 -1.13712e-05 -0.000105948 -0.000151273 1.25464e-17 
0.000356111 -7.9824e-11 -4.84064e-10 -1.32763e-09 -2.00839e-05 -0.000121792 -0.000334034 6.03715e-18 
0.000351555 5.40608e-10 9.31039e-10 -6.21307e-09 -1.52352e-06 -3.6999e-05 -0.0003496 0.043109 
0.000164373 -6.03791e-11 -7.86495e-10 -1.10432e-09 -7.31312e-06 -9.52603e-05 -0.000133756 1.1625e-17 
0 0 0 0 0 0 0 0 
0.00124998 -5.32439e-10 -6.15386e-09 -5.91789e-09 -7.78024e-05 -0.00089923 -0.000864749 -9.25646e-16 
0.000139228 -6.34768e-11 -1.24285e-09 -3.54293e-10 -6.83023e-06 -0.000133733 -3.81227e-05 0 
0.000639213 -5.42057e-10 -6.36729e-09 -2.74124e-09 -1.8888e-05 -0.000610193 -0.000189476 0.0275104 
0.000447946 -7.2269e-11 -7.55321e-09 -1.37395e-09 -4.21656e-06 -0.000440695 -8.01638e-05 -1.57499e-18 
0.000179976 -9.29699e-11 -1.1393e-09 -7.65223e-10 -1.21639e-05 -0.000149062 -0.00010012 -5.02307e-17 
0.000698851 -2.91343e-10 -4.73099e-09 -2.60548e-09 -3.76431e-05 -0.000611268 -0.000336641 1.98416e-16 
0.000578766 -2.25812e-10 -5.12156e-09 -2.98925e-09 -2.20228e-05 -0.000499492 -0.000291534 1.40409e-17 
0 0 0 0 0 0 0 0 
0.000189964 -6.22131e-11 -1.86202e-09 -7.42877e-10 -5.89231e-06 -0.000176355 -7.03592e-05 3.63615e-17 
8.80234e-05 -3.39135e-11 -7.98054e-10 -4.24492e-10 -3.30014e-06 -7.7659e-05 -4.13075e-05 -9.33979e-18 
0.000132556 -1.37181e-09 -6.90076e-10 -9.88136e-10 -2.50631e-06 -0.000123522 -4.80327e-05 -0.0481493 
0.000490283 -1.36971e-10 -4.29314e-09 -5.56775e-11 -6.36563e-06 -0.000481589 -9.16988e-05 -0.0597211 
0.000311903 -2.33745e-09 -5.16142e-09 -6.05831e-10 -2.42569e-06 -0.000306021 -6.02387e-05 0.397602 
0.000899253 -1.01007e-09 -2.12355e-08 -5.42543e-10 -2.47457e-08 -0.00089917 -1.217e-05 0.0144519 
0.00043433 -1.38109e-10 -2.14225e-09 -1.5655e-09 -2.2577e-05 -0.000350199 -0.000255917 2.5104e-16 
0 0 0 0 0 0 0 0 
0.000100258 -4.25952e-10 -2.54248e-09 5.89747e-10 -1.19914e-07 -9.9866e-05 -8.85686e-06 0.00264076 
0.000609337 0 -4.57003e-09 2.90952e-11 7.5772e-23 -0.000609325 3.87928e-06 8.95789e-17 
0.000458733 -2.71817e-11 -1.27984e-08 9.96195e-10 -9.71335e-07 -0.000457349 3.55989e-05 5.68063e-17 
0.000258389 -3.01939e-11 -2.39012e-09 4.27302e-10 -3.21299e-06 -0.000254337 4.547e-05 -1.02133e-17 
0.00178634 -4.71996e-10 -1.68906e-08 7.34372e-09 -4.57634e-05 -0.00163766 0.000712027 -4.46683e-16 
1.85736e-05 -5.32101e-12 -2.60832e-10 1.01221e-10 -3.53174e-07 -1.73123e-05 6.71842e-06 0 
0 0 0 0 0 0 0 0 
0 0 0 0 0 0 0 0 
0.000659509 -1.48308e-10 -1.06833e-08 2.45161e-09 -8.92268e-06 -0.000642742 0.000147497 -2.22316e-16 
0.000353784 -1.01127e-10 -3.27907e-09 1.58175e-09 -9.82334e-06 -0.000318525 0.000153649 0 
0.000246225 -8.17346e-11 -2.32292e-09 1.07515e-09 -7.85835e-06 -0.000223337 0.00010337 1.61488e-17 
0.000461169 5.07285e-10 -3.05493e-09 1.22096e-09 -1.63331e-05 -0.000430047 0.000165739 0.0321782 
0 0 0 0 0 0 0 0 
0.00141146 -5.72504e-09 -9.24646e-09 5.91262e-09 -6.59454e-05 -0.00128558 0.000578927 1.93465 
0.000185768 -7.45879e-10 -9.42712e-10 1.29199e-09 -1.09296e-05 -0.000166914 8.08089e-05 0.0439466 
0.000331327 -3.07836e-09 -9.28467e-09 1.87856e-10 -8.15185e-07 -0.00032955 3.42529e-05 0.127888 
1.78803e-05 -3.38607e-12 -2.0825e-10 7.44485e-11 -2.73726e-07 -1.68347e-05 6.01834e-06 9.69859e-19 
0.000445714 -9.40626e-10 -2.37638e-09 1.38767e-09 -2.51999e-05 -0.000341232 0.000285634 -0.0136544 
0.00402876 -9.0089e-10 -5.40281e-09 1.50455e-08 -0.000226678 -0.00135943 0.00378569 7.72796e-16 
0.000178574 -5.18556e-11 -4.40428e-10 1.38761e-09 -6.35663e-06 -5.39891e-05 0.000170098 -1.88247e-16 
0.00145772 -3.70343e-09 -5.67258e-09 1.31328e-08 -3.63046e-05 -0.00034199 0.00141657 1.64538 
0.000191064 -4.9469e-10 -1.07623e-09 3.6356e-09 -1.31299e-06 -1.77695e-05 0.000190232 0.00240749 
0.000107496 -4.14953e-13 -5.13281e-12 8.06219e-10 -5.5326e-08 -6.84361e-07 0.000107494 0 
0.000419075 -1.06817e-10 -7.47632e-10 1.44056e-09 -2.75214e-05 -0.000192628 0.000371161 1.54557e-17 
0.000902821 -4.24439e-10 -3.95455e-09 5.64636e-09 -5.54827e-05 -0.00051694 0.000738093 0 
0.00102499 -3.37945e-10 -3.2238e-09 6.30879e-09 -4.8837e-05 -0.000465877 0.000911695 -4.43845e-16 
0.000721245 -2.63051e-10 -2.10625e-09 5.34876e-09 -3.29694e-05 -0.000263987 0.000670386 1.92473e-16 
0.000296906 -9.58005e-11 -8.7827e-10 2.1867e-09 -1.20605e-05 -0.000110567 0.000275287 0 
0.00155943 -3.66923e-10 -5.80476e-09 1.52613e-08 -3.5035e-05 -0.000554256 0.00145719 1.763e-15 
0.000274799 1.92175e-10 -4.94338e-10 2.89535e-09 -5.97927e-06 -8.59633e-05 0.000260939 0.0259162 
0.000785697 -1.16758e-09 -2.59183e-09 8.27158e-09 -1.35416e-05 -0.000199566 0.000759809 -0.0204084 
0.000215079 3.94957e-10 -1.06698e-09 3.60359e-09 -1.08344e-06 -2.79359e-05 0.000213254 -0.00427931 
0 0 0 0 0 0 0 0 
0.00102519 -3.0175e-10 -2.54147e-09 1.27935e-08 -2.37107e-05 -0.000199702 0.00100527 -8.54108e-16 
8.49661e-05 -7.81033e-12 -3.48514e-10 2.07334e-09 -3.15639e-07 -1.40845e-05 8.379e-05 7.75764e-18 
0.000168712 -4.04625e-11 -8.39576e-10 1.91037e-09 -3.27079e-06 -6.78671e-05 0.000154425 1.16377e-17 
0.000501852 1.62138e-10 8.02799e-10 2.18333e-09 -2.44821e-05 0.000147143 0.000479171 -0.0287161 
0.000760125 -2.92703e-09 3.41138e-09 1.18497e-08 -5.38518e-06 0.000149725 0.000745214 0.334732 
0.000404548 -9.90323e-11 9.03854e-10 5.09512e-09 -7.74076e-06 7.06489e-05 0.000398256 -2.02558e-16 
0.00142512 -7.9655e-10 4.05564e-09 1.76714e-08 -3.29601e-05 0.000277605 0.00139743 -0.0462302 
5.39118e-05 -2.30572e-11 2.78447e-10 4.77071e-10 -2.24838e-06 2.71523e-05 4.65207e-05 -5.84954e-19 
0 0 0 0 0 0 0 0 
0 0 0 0 0 0 0 0 
9.1674e-05 -1.38236e-11 3.46751e-10 1.44107e-09 -8.54955e-07 2.14456e-05 8.91262e-05 -8.90412e-18 
0.00026619 -2.50651e-09 1.9234e-10 4.47289e-09 -3.71886e-06 6.76152e-05 0.000257432 0.252479 
0.000458379 -1.50119e-10 1.79255e-09 4.49302e-09 -1.4218e-05 0.000169775 0.000425542 9.09038e-18 
4.93484e-05 -1.55893e-11 1.12843e-10 3.89798e-10 -1.89436e-06 1.37124e-05 4.73671e-05 -7.28946e-19 
0.00117035 -5.22948e-10 6.43386e-09 1.0085e-08 -5.11138e-05 0.000628856 0.000985722 -3.00198e-16 
0.000216945 1.21338e-09 2.85221e-10 1.8096e-09 -9.91694e-06 7.94053e-05 0.000201648 0.0624636 
0.00110292 -6.94046e-10 3.31364e-09 8.05646e-09 -6.36087e-05 0.000428319 0.00101436 -0.00381113 