ITEM: TIMESTEP
250
ITEM: NUMBER OF SURFS
6916
ITEM: BOX BOUNDS oo rr rr
-0.35 0.35
-0.25 0.25
-0.25 0.25
ITEM: SURFS f_save[1] f_save[2] f_save[3] f_save[4] f_save[5] f_save[6] f_save[7] f_save[8] 
0.0057331 -4.30161e-08 3.09263e-09 -4.31028e-10 -0.0057331 0 0 4.47157 
0 0 0 0 0 0 0 0 
0 0 0 0 0 0 0 0 
0 0 0 0 0 0 0 0 
0 0 0 0 0 0 0 0 
0.0084376 -2.05667e-08 0 0 -0.0084376 0 0 0 
0 0 0 0 0 0 0 0 
0.0092868 -2.20562e-08 0 0 -0.0092868 0 0 0 
0.00661743 -1.57164e-08 0 0 -0.00661743 0 0 0 
0 0 0 0 0 0 0 0 
0 0 0 0 0 0 0 0 
0.00918781 -2.23953e-08 0 0 -0.00918781 0 0 0 
0.019856 -4.83992e-08 0 0 -0.019856 0 0 0 
0.00613568 -1.45723e-08 0 0 -0.00613568 0 0 0 
0.00942438 -2.2383e-08 0 0 -0.00942438 0 0 0 
0 0 0 0 0 0 0 0 
0 0 0 0 0 0 0 0 
0.0088028 -2.09066e-08 0 0 -0.0088028 0 0 0 
0 0 0 0 0 0 0 0 
0 0 0 0 0 0 0 0 
0.00690321 -1.63951e-08 0 0 -0.00690321 0 0 0 
0 0 0 0 0 0 0 0 
0 0 0 0 0 0 0 0 
0.00337541 -8.01661e-09 0 0 -0.00337541 0 0 0 
0 0 0 0 0 0 0 0 
0 0 0 0 0 0 0 0 
0 0 0 0 0 0 0 0 
0.00430376 -1.02214e-08 0 0 -0.00430376 0 0 0 
0 0 0 0 0 0 0 0 
0.00555788 -1.38948e-08 0 0 -0.00555788 0 0 5.30724e-15 
0.00461471 -2.19199e-07 -1.08018e-09 -2.92986e-09 -0.00461471 0 0 0.589297 
0.00359686 -3.0933e-07 2.79197e-09 -3.17526e-09 -0.00359686 0 0 0.689124 
0.00208184 -9.88876e-08 0 0 -0.00208184 0 0 0 
0.0089168 -2.2292e-08 0 0 -0.0089168 0 0 0 
0 0 0 0 0 0 0 0 
0.000542301 1.28797e-09 0 0 0.000542301 0 0 0 
0.000555276 1.31878e-09 0 0 0.000555276 0 0 0 
0.00160908 1.96106e-09 0 0 0.00160908 0 0 0 
0 0 0 0 0 0 0 0 
0 0 0 0 0 0 0 0 
0 0 0 0 0 0 0 0 
0 0 0 0 0 0 0 0 
0 0 0 0 0 0 0 0 
0 0 0 0 0 0 0 0 
0.000416277 9.8866e-10 0 0 0.000416277 0 0 0 
0 0 0 0 0 0 0 0 
0 0 0 0 0 0 0 0 
0.00051954 1.23391e-09 0 0 0.00051954 0 0 0 
0 0 0 0 0 0 0 0 
0 0 0 0 0 0 0 0 
0.000941586 2.29512e-09 0 0 0.000941586 0 0 0 
0 0 0 0 0 0 0 0 
0 0 0 0 0 0 0 0 
0 0 0 0 0 0 0 0 
0 0 0 0 0 0 0 0 
0.000950176 2.31606e-09 0 0 0.000950176 0 0 0 
0.000947307 2.30906e-09 0 0 0.000947307 0 0 0 
0.000559829 1.36458e-09 -8.13785e-10 1.55298e-09 0.000559829 0 0 -0.111617 
0 0 0 0 0 0 0 0 
0 0 0 0 0 0 0 0 
0.000332167 8.0966e-10 0 0 0.000332167 0 0 0 
0 0 0 0 0 0 0 0 
1.22559e-05 -2.9226e-07 2.45736e-07 2.50837e-07 0 8.6662e-06 8.6662e-06 0.0181334 
1.2536e-05 -1.66493e-07 -1.10402e-07 -1.18297e-07 0 -8.86431e-06 -8.86431e-06 0.0221414 
0.000273154 -8.71024e-09 1.55698e-07 9.38802e-10 0 0.000273154 0 0.0226004 
0.000219933 -1.16976e-08 -1.25362e-07 -6.408e-09 0 -0.000219933 0 0.0485516 
0.000209186 5.07528e-09 1.19236e-07 -6.87935e-10 0 0.000209186 0 0.00199807 
0.000299274 -9.62333e-09 -1.70586e-07 -2.61133e-09 0 -0.000299274 0 0.0306283 
0.000265649 -3.21453e-10 1.5142e-07 6.43429e-09 0 0.000265649 0 -0.00360552 
0.000278037 -1.9065e-09 -4.66207e-09 1.58481e-07 0 0 0.000278037 0.00147593 
0.000251035 -4.50633e-09 1.92465e-09 1.46855e-07 0 0 0.000251035 0.0364092 
0.000257454 7.25637e-09 2.59682e-09 -1.50611e-07 0 0 -0.000257454 -0.00140485 
0.00027735 9.04318e-09 5.66269e-09 1.6225e-07 0 0 0.00027735 -0.00299865 
0.000167483 -5.09772e-09 9.54656e-08 1.45306e-09 0 0.000167483 0 0.0237558 
7.97832e-05 -1.09561e-08 4.66731e-08 -3.20653e-09 0 7.97832e-05 0 0.0360125 
0.000158621 -1.77764e-08 -3.48273e-09 -9.04138e-08 0 0 -0.000158621 0.0681003 
0.000175975 1.129e-09 1.00306e-07 -1.85353e-10 0 0.000175975 0 0.00150702 
0.00018092 -1.60271e-08 -1.03124e-07 1.21845e-09 0 -0.00018092 0 0.0589592 
0.0002575 -2.29763e-08 -4.4957e-09 1.46775e-07 0 0 0.0002575 0.0778632 
0.000242413 3.17377e-09 -6.78278e-09 1.38175e-07 0 0 0.000242413 0.00372068 
0.000164846 -1.31923e-08 2.133e-09 -9.3962e-08 0 0 -0.000164846 0.0382684 
0.000193508 -1.70215e-09 -1.10299e-07 -7.89806e-09 0 -0.000193508 0 0.0130723 
0.000209922 -1.02741e-08 1.19656e-07 -2.46753e-09 0 0.000209922 0 0.0417811 
0.000186508 4.08583e-09 1.42295e-09 -1.06309e-07 0 0 -0.000186508 -0.00280188 
0.000175309 -6.99997e-09 1.02556e-07 -3.49463e-09 0 0.000175309 0 0.0143262 
0.000161168 2.95037e-09 -1.53074e-09 9.42834e-08 0 0 0.000161168 -0.00075254 
0.000218569 2.47424e-09 -1.27863e-07 -1.33836e-09 0 -0.000218569 0 0.000998405 
0.000108421 3.17448e-09 -1.90343e-09 -6.17997e-08 0 0 -0.000108421 0.00031441 
0.000176414 6.53563e-10 -1.03202e-07 7.71905e-10 0 -0.000176414 0 -0.000218049 
0.000225131 -1.23464e-08 5.71608e-09 1.31701e-07 0 0 0.000225131 0.037911 
0.000158491 -5.86735e-09 2.27836e-09 -9.03401e-08 0 0 -0.000158491 0.0322494 
0.000134568 -3.16057e-09 -7.87225e-08 -5.90994e-09 0 -0.000134568 0 0.0228031 
0.000192726 -8.0364e-10 -1.09854e-07 -9.41698e-09 0 -0.000192726 0 0.00204076 
0.000171419 -6.89362e-10 -1.25844e-10 5.01401e-08 0 0 0.000171419 -0.000255196 
0.00010639 -6.27875e-09 -8.97055e-11 6.06425e-08 0 0 0.00010639 0.0244546 
0.000195345 -1.82066e-08 2.19635e-09 -1.11346e-07 0 0 -0.000195345 0.0645234 
9.62028e-05 -1.12186e-08 -4.16607e-10 5.48356e-08 0 0 9.62028e-05 0.0392343 
0.000112699 -1.13566e-08 -6.42386e-08 1.48769e-09 0 -0.000112699 0 0.0400253 
0.000170391 -8.14125e-09 -4.2304e-10 -9.71231e-08 0 3.34093e-11 -0.000170391 0.0317842 
0.000180251 1.57797e-09 -1.02743e-07 5.96475e-09 0 -0.000180251 0 -0.00043762 
9.10186e-05 -1.95451e-08 -5.18806e-08 1.41045e-09 0 -9.10186e-05 0 0.059107 
7.1136e-05 5.32099e-11 -1.54519e-09 4.05475e-08 0 0 7.1136e-05 -0.000479881 
0.000232243 -1.80671e-09 1.32379e-07 3.99656e-09 0 0.000232243 0 0.0151865 
7.82874e-05 2.59207e-09 1.83617e-09 -4.46238e-08 0 0 -7.82874e-05 -0.00446528 
0.0001967 -7.69202e-09 -1.12119e-07 4.24917e-10 0 -0.0001967 0 0.0232036 
0.000203752 -1.14699e-08 4.50159e-09 -1.16138e-07 0 0 -0.000203752 0.0383692 
0.000262446 -4.88791e-11 1.86992e-08 5.59319e-10 -4.99271e-07 0.000262445 0 -0.0183278 
0.000502338 -7.19326e-11 9.14215e-09 -9.82078e-11 -3.40703e-05 0.000500662 -2.2793e-05 -0.0283377 
0.0001389 -2.45541e-11 2.23908e-09 -7.76939e-11 -1.52219e-06 0.000138808 -4.81649e-06 0 
0.0004237 -2.36868e-10 7.62001e-09 -4.00789e-10 -1.31462e-05 0.000422912 -2.22439e-05 -1.53414e-17 
0.000173963 -5.0436e-11 2.86769e-09 -3.24363e-11 -3.05893e-06 0.000173925 -1.96725e-06 0 
0 0 0 0 0 0 0 0 
0.000403182 -2.31888e-10 9.72053e-09 -4.73247e-10 -2.13325e-07 0.000403146 5.37006e-06 -0.00221138 
0.000398998 -1.81299e-10 7.38141e-09 -4.33517e-10 -1.52692e-05 0.000398628 7.88977e-06 -0.0211951 
0.000313115 -6.09475e-11 5.04745e-09 1.75142e-10 -3.77828e-06 0.000312904 1.08574e-05 -1.4994e-17 
0.000296042 -1.13901e-10 2.10929e-08 1.16241e-09 -1.41017e-07 0.000296042 0 -0.0236733 
0.000108587 -1.47184e-11 0 7.73685e-09 -2.06574e-07 0 0.000108587 -4.607e-18 
0.000206515 -1.82582e-09 1.3056e-09 3.57857e-09 -1.40066e-05 9.37037e-06 0.000205826 0.00476228 
0.000166785 -8.87192e-11 1.25406e-09 2.64767e-09 -1.82778e-06 5.78345e-06 0.000166675 0.020305 
2.38943e-05 2.21446e-10 1.62104e-10 4.29686e-10 -7.41369e-07 1.25443e-06 2.38498e-05 -0.0010414 
0.000385423 -2.94904e-10 -8.23291e-10 6.36042e-09 -6.77723e-06 4.35856e-06 0.000385339 0.0109352 
0 0 0 0 0 0 0 0 
0.000186149 -2.37288e-12 -5.97329e-11 4.48432e-09 -9.84921e-08 -2.47936e-06 0.000186133 9.86004e-19 
0.000229393 -5.23587e-12 1.89722e-10 4.24635e-09 -8.7786e-06 -4.53601e-06 0.00022918 0.0129845 
6.40931e-05 -1.24757e-11 -3.58506e-11 1.03319e-09 -7.73396e-07 -2.22247e-06 6.40499e-05 -6.42599e-18 
0.00015219 1.8818e-09 -8.80859e-10 1.08444e-08 -7.24943e-08 0 0.00015219 0.00225863 
0.000194384 1.4873e-09 -1.38527e-08 1.21731e-09 -3.69792e-07 -0.000194384 0 -0.00724267 
0.000159582 -1.96522e-10 -2.88789e-09 1.31473e-10 -1.08234e-05 -0.00015905 7.24086e-06 5.70894e-18 
0.000353978 3.1328e-10 -5.70187e-09 4.40777e-10 -3.8792e-06 -0.000353744 1.22745e-05 0.00904941 
0.000228596 -1.59359e-10 -4.10304e-09 3.52159e-10 -7.09267e-06 -0.000228171 1.20011e-05 0.00698705 
0.000241349 -6.99729e-11 -3.97851e-09 4.50008e-11 -4.24384e-06 -0.000241296 2.72929e-06 -4.19121e-18 
0 0 0 0 0 0 0 0 
0.000362708 -4.62352e-12 -8.73763e-09 -1.16388e-10 -1.9191e-07 -0.000362676 -4.83098e-06 1.64932e-17 
9.13622e-05 -6.46071e-11 -1.68668e-09 -3.33833e-11 -3.49632e-06 -9.12774e-05 -1.80659e-06 -3.73974e-18 
0 0 0 0 0 0 0 0 
0.000274097 -2.96327e-10 -1.95292e-08 1.58677e-09 -1.30563e-07 -0.000274096 0 0.00253794 
0.000358957 -7.17143e-09 1.98459e-10 -2.55621e-08 -6.82872e-07 0 -0.000358956 0.177915 
0.000369344 -4.54838e-10 -3.04286e-10 -6.68384e-09 -2.50502e-05 -1.67585e-05 -0.000368112 1.76026e-17 
0.000200485 -1.31664e-08 -1.0603e-09 -3.05495e-09 -2.19709e-06 -6.95202e-06 -0.000200352 1.19499 
4.5248e-05 -2.07625e-10 3.61378e-10 -8.29351e-10 -1.40392e-06 -2.37548e-06 -4.51638e-05 -0.000627709 
0.0003375 -9.88892e-10 -7.6017e-10 -5.53995e-09 -5.93455e-06 -3.81661e-06 -0.000337426 -0.0383309 
0 0 0 0 0 0 0 0 
0.000160425 -1.19171e-08 1.14751e-09 -3.84372e-09 -8.48812e-08 2.13673e-06 -0.00016041 0.985921 
0.000466553 -3.29925e-10 1.70476e-10 -8.61325e-09 -1.78544e-05 9.2256e-06 -0.00046612 -2.43083e-17 
0.000142691 -2.77747e-11 7.98147e-11 -2.3002e-09 -1.72182e-06 4.94791e-06 -0.000142595 -2.142e-18 
0.000140088 -3.60363e-10 3.87775e-10 -9.9811e-09 -6.67296e-08 0 -0.000140088 -0.00259295 
0 0 0 0 0 0 0 0 
0 0 0 0 0 0 0 0 
0 0 0 0 0 0 0 0 
0 0 0 0 0 0 0 0 
0 0 0 0 0 0 0 0 
0 0 0 0 0 0 0 0 
0 0 0 0 0 0 0 0 
0 0 0 0 0 0 0 0 
0 0 0 0 0 0 0 0 
0 0 0 0 0 0 0 0 
0 0 0 0 0 0 0 0 
0 0 0 0 0 0 0 0 
0 0 0 0 0 0 0 0 
0 0 0 0 0 0 0 0 
0 0 0 0 0 0 0 0 
0 0 0 0 0 0 0 0 
0.000291273 -1.19191e-09 6.72641e-09 -1.80631e-10 -5.08036e-05 0.000286705 -7.69916e-06 2.35641e-17 
5.09731e-05 -1.53107e-10 6.05295e-10 -1.22169e-10 -1.22672e-05 4.8497e-05 -9.78835e-06 0 
0.000584354 -9.5698e-10 4.31572e-09 -3.50122e-10 -0.000126109 0.000568715 -4.61383e-05 0 
0.000660745 -2.12377e-09 1.12899e-08 -9.36754e-10 -0.000121748 0.000647207 -5.37005e-05 -2.69384e-16 
0.000738134 -2.08588e-09 1.39359e-08 -2.00598e-09 -0.000143898 0.000719179 -8.3175e-05 -0.00131619 
0.000591214 -9.02571e-10 4.06058e-09 -6.34978e-10 -0.000139743 0.000570628 -6.62552e-05 0.041947 
0.000103853 -2.83187e-10 1.27803e-09 -1.92469e-10 -2.2228e-05 0.000100316 -1.51073e-05 -8.13632e-18 
0.000161936 -4.87816e-10 2.10819e-09 -2.90322e-10 -3.61819e-05 0.000156367 -2.15335e-05 0 
0.000591983 -1.25261e-09 6.70779e-09 -1.53793e-09 -0.000137918 0.000562229 -0.000123779 0.0218508 
0.000470907 -1.38724e-09 5.21017e-09 -8.33534e-10 -9.03759e-05 0.000461617 -2.22611e-05 0.0379834 
0.000119234 -3.39054e-10 1.33771e-09 -3.11709e-10 -2.85745e-05 0.000112739 -2.627e-05 -1.456e-17 
0.000104838 -3.51559e-10 1.96954e-09 7.45355e-11 -1.84095e-05 0.000103136 3.90307e-06 -1.80935e-18 
0.000352733 -1.20421e-08 2.57324e-09 3.55778e-10 -7.39497e-05 0.00034325 3.36351e-05 1.31388 
0.000350293 -9.95642e-10 8.10356e-09 1.19394e-09 -6.1725e-05 0.000344569 1.2947e-05 0.025656 
0.00134464 -3.14651e-09 1.19771e-08 2.41739e-09 -0.000335329 0.00127642 0.000257625 -2.35669e-16 
0.00086146 -1.3839e-09 5.60527e-09 8.4871e-10 -0.000204292 0.000827454 0.000125287 -3.26443e-16 
0.000281229 -2.10102e-09 2.58901e-09 3.71166e-09 -6.3959e-05 0.00027008 4.53372e-05 -0.0419752 
0.000680637 -1.90841e-09 8.9369e-09 1.10617e-09 -0.00014111 0.000660806 8.17916e-05 -9.83621e-17 
0.000599469 -1.25819e-09 6.18768e-09 5.28638e-10 -0.000119034 0.000585399 5.0013e-05 -1.30757e-17 
0.000146657 -3.08631e-10 2.84925e-09 -1.11733e-09 -2.63276e-05 0.000144097 7.16223e-06 0.0260218 
0.000685976 -2.26451e-09 1.20813e-08 -8.50524e-10 -0.00013422 0.000665522 9.81261e-05 0.026783 
4.21272e-05 -1.01379e-10 4.73925e-10 7.99407e-11 -8.69469e-06 4.0646e-05 6.85608e-06 0 
0.000392183 -2.45242e-09 8.03162e-10 4.30592e-09 -7.06408e-05 3.58782e-05 0.000384096 -0.0324381 
0.000361028 -6.10666e-10 3.02104e-10 2.48176e-09 -8.56656e-05 4.23798e-05 0.000348147 0 
0.00047453 1.8746e-09 -1.13519e-09 8.89941e-09 -8.64727e-05 3.11856e-05 0.000465542 0.0151718 
0.000182016 -6.63073e-10 2.48159e-10 3.3901e-09 -3.48489e-05 1.30424e-05 0.000178172 -1.81597e-18 
0.000698638 -1.58662e-09 4.43513e-10 7.82284e-09 -0.000138655 3.87589e-05 0.000683643 -2.41566e-17 
0.000822082 -1.60827e-09 3.85844e-10 1.19737e-08 -0.000170621 6.45595e-05 0.000801586 0.0273672 
0.000589732 -1.17873e-08 1.01322e-09 3.93201e-09 -0.000129756 0.000130195 0.000560354 1.52382 
0.000113133 -1.8587e-10 1.02273e-10 7.63842e-10 -2.65252e-05 1.45952e-05 0.000109006 -9.86186e-18 
0.000256161 -9.97081e-10 8.26297e-10 4.76596e-09 -4.58495e-05 9.53079e-06 0.000251844 -0.00336143 
0.00125778 -1.51377e-09 2.83564e-09 1.23813e-08 -0.000298227 0.000344634 0.00117231 -0.0455706 
0.000324679 -6.35679e-10 2.96614e-10 2.46548e-09 -7.02179e-05 7.44316e-05 0.000308133 -0.0580771 
0.000270154 -8.71816e-10 -4.7129e-11 5.60065e-09 -5.07102e-05 -1.61349e-05 0.000264861 -0.0167882 
0.000553544 -9.36301e-10 -4.63199e-10 3.80515e-09 -0.000131346 -6.49786e-05 0.000533795 1.56319e-16 
0.000525434 -9.61688e-10 -1.153e-09 3.75475e-09 -0.000124957 -0.000149816 0.000487875 4.4896e-18 
0.000232848 -3.58309e-10 -1.26019e-10 1.55335e-09 -5.21738e-05 -1.83497e-05 0.000226185 5.03124e-18 
0.000396272 -1.03846e-09 -1.05829e-09 4.11555e-09 -9.40714e-05 -9.58674e-05 0.000372816 -5.00803e-17 
0.000266258 -6.19357e-10 -5.92137e-10 2.85202e-09 -5.53764e-05 -5.29427e-05 0.000254998 -3.08933e-18 
0.000294242 -6.34344e-10 -2.6481e-10 3.12075e-09 -5.84093e-05 -2.43833e-05 0.000287354 0 
0.000161933 -1.43989e-09 4.48391e-10 2.64603e-09 -3.13528e-05 -1.56369e-05 0.000158097 -0.00825395 
0.000401551 -8.81677e-09 -6.21874e-10 2.68207e-08 -6.97188e-05 -4.30117e-06 0.000395429 0.124522 
0.000218829 -8.60453e-10 -9.93276e-10 5.15986e-09 -3.88092e-05 -1.5594e-05 0.000214794 0.00400024 
0.000561251 -2.38087e-09 -1.30027e-08 -1.75734e-09 -9.78929e-05 -0.000552449 1.48354e-05 -0.00605827 
0.000503994 -1.51384e-09 -5.98482e-09 1.20794e-09 -0.000121291 -0.000479512 9.67818e-05 -7.75152e-17 
0 0 0 0 0 0 0 0 
0.000192734 -6.19487e-10 -3.29318e-09 2.73244e-10 -3.55128e-05 -0.000188785 1.5664e-05 -1.38654e-17 
0.000347418 -4.82168e-10 -6.68942e-09 6.82779e-10 -6.77286e-05 -0.000338496 3.9148e-05 0.00131042 
0 0 0 0 0 0 0 0 
0.000197376 -5.38204e-10 -2.42893e-09 3.65792e-10 -4.22448e-05 -0.000190652 2.87118e-05 -1.62726e-17 
0.000104695 -3.15384e-10 -1.36299e-09 1.87699e-10 -2.33924e-05 -0.000101095 1.39219e-05 7.6884e-18 
0.000471968 -7.23602e-09 -4.00909e-09 3.57416e-10 -0.000109957 -0.000448246 9.86849e-05 0.947145 
8.74208e-05 -1.92858e-10 -9.85068e-10 4.75041e-11 -1.67777e-05 -8.56961e-05 4.13263e-06 6.01181e-18 
0.000913637 -6.90595e-10 -1.106e-08 9.8868e-10 -0.000218955 -0.000863871 0.000201296 -0.0421747 
0.000503657 -8.87002e-10 -9.60273e-09 -4.20022e-10 -8.84415e-05 -0.000495476 -1.87508e-05 -0.00689694 
0 0 0 0 0 0 0 0 
0.000270369 -3.7629e-10 -6.32451e-09 -9.31347e-10 -4.76416e-05 -0.000265951 -9.99301e-06 0.0163281 
0.00066216 -1.54948e-09 -5.89804e-09 -1.19043e-09 -0.00016513 -0.000628564 -0.000126866 1.47293e-17 
0 0 0 0 0 0 0 0 
0.000340394 -9.80679e-10 -4.14112e-09 -6.95152e-10 -7.74147e-05 -0.0003269 -5.48752e-05 4.09136e-18 
0.000449303 -1.25978e-09 -5.89944e-09 -7.30206e-10 -9.31497e-05 -0.000436212 -5.39924e-05 -1.53292e-17 
0.000311307 -1.51622e-09 -3.11923e-09 6.78137e-10 -6.18151e-05 -0.000304001 -2.59717e-05 -0.0265738 
2.01728e-05 -6.91485e-11 -3.78464e-10 -1.88113e-11 -3.62138e-06 -1.98206e-05 -9.85169e-07 4.52389e-19 
0.000234698 -8.14785e-10 -3.70931e-09 -2.53083e-09 -4.59218e-05 -0.0002277 -3.35725e-05 0.00228956 
0.000474192 -1.14114e-09 -5.33459e-09 -8.99828e-10 -9.78691e-05 -0.000457519 -7.71734e-05 2.0151e-16 
0 0 0 0 0 0 0 0 
0 0 0 0 0 0 0 0 
0.000161153 -5.14556e-10 -1.8557e-10 -2.7702e-09 -2.93666e-05 -1.05908e-05 -0.0001581 4.92994e-19 
0.000148115 -5.34151e-10 -1.14823e-09 -2.69047e-09 -2.83581e-05 -1.06132e-05 -0.000144987 0.00881186 
0.00056778 -1.42133e-08 -1.68435e-09 -3.66134e-09 -0.000112685 -3.14992e-05 -0.000555594 1.67316 
0.000580967 -2.57253e-09 -3.39965e-09 -7.90433e-09 -0.000120578 -4.56243e-05 -0.000566482 0.0173303 
0.000695525 -1.55856e-09 -2.93116e-09 -7.09222e-09 -0.000153033 -0.000153551 -0.000660877 -0.00404299 
0 0 0 0 0 0 0 0 
0.000398575 -1.3632e-09 -2.83369e-10 -7.48782e-09 -7.13398e-05 -1.48295e-05 -0.000391858 -2.71235e-17 
0 0 0 0 0 0 0 0 
0 0 0 0 0 0 0 0 
0.000219941 -8.64558e-10 2.75084e-10 -4.51561e-09 -4.12849e-05 1.31359e-05 -0.000215632 -6.59989e-18 
0.00115451 -1.95282e-09 9.66083e-10 -7.9363e-09 -0.000273946 0.000135524 -0.00111332 -9.30645e-16 
0.000260488 -4.76765e-10 5.71611e-10 -1.86145e-09 -6.19485e-05 7.42724e-05 -0.000241868 -1.1224e-17 
0 0 0 0 0 0 0 0 
6.70072e-05 -1.75597e-10 1.7895e-10 -6.95913e-10 -1.59069e-05 1.62106e-05 -6.30409e-05 -4.69503e-18 
0.000116719 -2.71506e-10 2.59573e-10 -1.25023e-09 -2.42752e-05 2.32083e-05 -0.000111783 -1.54466e-18 
0.0002865 -1.4407e-10 5.2548e-10 -3.11219e-09 -5.68725e-05 2.37417e-05 -0.000279793 -0.0162231 
0.000989768 3.99243e-10 2.64798e-09 -1.74646e-08 -0.000191635 9.55757e-05 -0.000966324 -0.000804127 
0.000344413 -3.47565e-09 8.85807e-10 -2.37209e-08 -5.97982e-05 3.68914e-06 -0.000339162 0.00681132 
0.000822634 -4.51928e-09 -3.63079e-10 -1.94626e-08 -0.000145894 5.86219e-05 -0.000807468 -0.00997964 
0.000430982 -1.68454e-10 1.82291e-09 -2.82863e-11 -2.42492e-05 0.00040498 0.000145427 -0.0113398 
0.00193576 -4.35071e-10 8.51533e-09 2.61487e-09 -9.44332e-05 0.00184827 0.000567564 6.56226e-17 
0 0 0 0 0 0 0 0 
0.000189597 -6.20357e-11 1.8234e-09 7.67548e-10 -5.9423e-06 0.00017466 7.35221e-05 -3.30973e-18 
0.00028033 -9.71219e-12 7.82105e-09 6.08771e-10 -3.47064e-07 0.000279485 2.17544e-05 3.7042e-18 
0.000924708 -2.35697e-10 3.17867e-09 1.64969e-09 -6.07273e-05 0.000818984 0.000425042 1.0683e-16 
0.000343152 -7.19072e-10 1.91226e-09 2.3702e-09 -1.77777e-05 0.0003157 0.000133306 0.0148486 
0.00340292 -7.54223e-10 1.51269e-08 8.76408e-09 -0.000146672 0.0029417 0.00170433 -8.60079e-16 
0.000525241 -9.24379e-10 3.91642e-09 1.38059e-09 -2.69145e-05 0.000488073 0.000192195 0.0357139 
9.71681e-05 2.008e-10 2.01304e-10 1.72683e-09 -3.89023e-06 9.10728e-05 3.3649e-05 0.0724738 
0.00019681 -5.45072e-11 1.92606e-09 7.32594e-10 -5.20401e-06 0.000183888 6.99436e-05 -8.24716e-19 
0.00020084 -2.85401e-11 1.54489e-09 4.57246e-10 -3.55717e-06 0.000192552 5.69901e-05 -3.01459e-17 
0 0 0 0 0 0 0 0 
0.000146788 -1.82327e-11 2.4204e-09 3.9854e-10 -1.09102e-06 0.000144833 2.38481e-05 3.04968e-17 
0.000431545 -4.74002e-09 1.04467e-08 2.18484e-09 -1.56882e-06 0.000426087 6.83997e-05 0.36895 
0.000521792 -1.91669e-10 3.5056e-09 2.49668e-09 -2.3215e-05 0.000424599 0.000302397 -1.30781e-16 
0 0 0 0 0 0 0 0 
0.000220092 -4.14482e-11 1.09133e-09 4.20598e-10 -7.79489e-06 0.000205239 7.90991e-05 -3.24904e-18 
0.000118681 -2.66741e-11 5.22075e-10 -1.60318e-10 -5.78967e-06 0.000113317 -3.47973e-05 0 
0 0 0 0 0 0 0 0 
0.000315682 -8.41689e-11 3.40287e-09 -8.06995e-10 -7.59536e-06 0.000307074 -7.28229e-05 -6.23601e-18 
0.000651861 -1.7772e-09 6.99913e-09 -1.81531e-09 -1.29713e-05 0.000637324 -0.000136279 -0.000810495 
0 0 0 0 0 0 0 0 
0.00530199 -2.72084e-09 3.5007e-08 -2.07303e-08 -0.000353788 0.00455192 -0.00269555 -1.72525e-15 
0.000389633 -4.65333e-10 6.49149e-09 -6.71649e-10 -1.30982e-06 0.000386238 -5.13094e-05 -0.000493615 
0.00340279 -4.85799e-10 2.72574e-08 -7.15915e-09 -5.86484e-05 0.00329068 -0.000864294 1.65187e-15 
0.000458408 -8.30732e-10 4.46253e-09 -1.89924e-09 -1.20096e-05 0.000430639 -0.000156666 -0.00676115 
0.0010028 3.72149e-10 8.91059e-09 -5.17412e-09 -3.8158e-05 0.000865447 -0.000505127 0.0136736 
0.000146765 -6.55793e-11 1.26469e-09 -8.06826e-10 -6.40982e-06 0.000123613 -7.88604e-05 -6.75445e-18 
0 0 0 0 0 0 0 0 
0.00155607 -3.157e-10 5.95966e-09 -2.0313e-09 -7.79238e-05 0.00147102 -0.000501384 -5.45829e-16 
0.000770464 -1.76716e-10 2.93916e-09 -1.07165e-09 -4.34519e-05 0.000722698 -0.000263503 2.5488e-17 
0.000469461 7.78612e-10 9.06596e-09 -1.79596e-09 -1.28272e-06 0.000468227 -3.39931e-05 0.0323833 
0.000185402 2.36645e-10 1.73233e-09 -5.39716e-10 -4.61742e-06 0.000180168 -4.34963e-05 0.027539 
0.00525779 -1.34017e-09 1.80735e-08 -9.37994e-09 -0.000345295 0.00465666 -0.00241675 -2.27904e-15 
0 0 0 0 0 0 0 0 
0.00372359 -1.87586e-10 1.09296e-09 -3.66118e-09 -0.000182592 0.00106386 -0.00356371 2.01796e-16 
0.000570944 -8.77137e-11 1.09942e-09 -6.11732e-09 -1.44783e-05 0.00016926 -0.000545086 0.0105298 
0.000552085 -3.93204e-09 1.82724e-09 -1.0491e-08 -6.75542e-06 7.39765e-05 -0.000547065 0.58738 
0.000984123 -5.15046e-10 4.85722e-09 -5.69367e-09 -6.7567e-05 0.0006372 -0.000746932 5.89267e-16 
0.00151432 -3.49874e-10 2.35594e-09 -5.57941e-09 -8.73353e-05 0.000588087 -0.00139273 6.46873e-17 
0 0 0 0 0 0 0 0 
0 0 0 0 0 0 0 0 
0.000335918 5.49666e-10 5.33108e-10 -2.68971e-09 -1.37362e-05 0.000129296 -0.000309733 0.0396791 
0 0 0 0 0 0 0 0 
0.00102938 -8.25218e-10 -1.65939e-09 -1.20647e-08 -2.16539e-05 0.0002792 -0.000990555 1.48726 
0 0 0 0 0 0 0 0 
0.000983495 -2.90266e-09 9.32104e-09 -1.46016e-08 -1.04787e-05 0.000219964 -0.000958525 1.07308 
0.00017582 1.77543e-10 1.82142e-09 -2.53974e-09 -1.33374e-06 3.46318e-05 -0.00017237 -0.0233326 
0 0 0 0 0 0 0 0 
0.00110601 -2.01462e-09 4.60205e-09 -1.72022e-08 -1.70733e-05 0.000339491 -0.00105248 -0.0012265 
0 0 0 0 0 0 0 0 
0.000537157 1.39986e-12 -1.30245e-11 -3.12722e-09 2.40449e-07 -2.23717e-06 -0.000537152 -2.37399e-17 
0.000326133 -1.66762e-10 -1.35409e-09 -2.79663e-09 -1.22102e-05 -8.2962e-05 -0.000315168 0.0554491 
0.000120027 1.1243e-09 -1.06327e-09 -1.95667e-09 -8.47498e-07 -1.55897e-05 -0.000119007 0.000308867 
0.000707878 -1.58909e-10 -1.89826e-09 -7.483e-09 -1.45678e-05 -0.000174022 -0.000685999 -2.66077e-16 
0.000589785 -5.67779e-09 -2.70516e-09 -5.74677e-09 -1.46685e-05 -0.000159955 -0.00056749 0.796658 
0.00056069 4.80975e-10 -1.08158e-09 -2.76589e-09 -2.30904e-05 -0.000223512 -0.000513695 0.0937482 
0.000432574 -2.23454e-10 -1.83922e-09 -2.73831e-09 -2.92361e-05 -0.000240638 -0.000358272 -9.04152e-18 
0 0 0 0 0 0 0 0 
0.000500277 -1.10281e-10 -1.53446e-09 -8.43561e-09 -6.43411e-06 -8.95254e-05 -0.00049216 -8.06361e-17 
0.0007925 -2.23393e-10 -3.20828e-09 -7.62166e-09 -2.14011e-05 -0.000307355 -0.000730158 -1.98609e-17 
0 0 0 0 0 0 0 0 
0.000335373 -8.31863e-10 -1.17179e-09 -2.35714e-09 -1.37139e-05 -0.000129086 -0.000309231 -0.121553 
0.000418149 -3.93764e-10 -1.36174e-09 -2.49766e-09 -2.05633e-05 -0.000226533 -0.000350868 -0.0027375 
0.000266449 -1.25264e-10 -1.16711e-09 -1.66641e-09 -1.63746e-05 -0.000152564 -0.000217833 1.80668e-17 
0 0 0 0 0 0 0 0 
0.000314189 7.92865e-10 1.69015e-09 -5.64485e-09 -1.36158e-06 -3.30664e-05 -0.000312441 0.0620769 
0.000236698 -8.69459e-11 -1.13255e-09 -1.59023e-09 -1.05309e-05 -0.000137175 -0.000192608 1.674e-17 
0 0 0 0 0 0 0 0 
0.000777854 -3.31332e-10 -3.8295e-09 -3.68265e-09 -4.84158e-05 -0.000559583 -0.000538126 -4.99849e-16 
0.000200488 -9.14066e-11 -1.7897e-09 -5.10182e-10 -9.83554e-06 -0.000192575 -5.48967e-05 0 
0.000500566 -6.46496e-10 -4.83778e-09 -2.60249e-09 -1.47911e-05 -0.00047784 -0.000148378 0.0396149 
0.000527352 -8.50798e-11 -8.89213e-09 -1.61751e-09 -4.96401e-06 -0.000518815 -9.43741e-05 2.77197e-18 
0.000259166 -1.33877e-10 -1.64059e-09 -1.10192e-09 -1.7516e-05 -0.00021465 -0.000144172 -7.23322e-17 
0.00100635 -4.19534e-10 -6.81262e-09 -3.75189e-09 -5.4206e-05 -0.000880226 -0.000484763 2.8572e-16 
0.00053924 -2.10391e-10 -4.7718e-09 -2.78511e-09 -2.05188e-05 -0.00046538 -0.000271624 0 
0 0 0 0 0 0 0 0 
0.000273548 -8.95869e-11 -2.68131e-09 -1.06974e-09 -8.48493e-06 -0.000253952 -0.000101317 5.23606e-17 
0 0 0 0 0 0 0 0 
0 0 0 0 0 0 0 0 
0.000706007 -1.97238e-10 -6.18213e-09 -8.01756e-11 -9.1665e-06 -0.000693488 -0.000132046 -0.0859984 
0.000377622 -3.35665e-09 -6.26275e-09 -6.42148e-10 -2.93678e-06 -0.000370501 -7.29311e-05 0.572546 
0.00129492 -1.4545e-09 -3.05792e-08 -7.81261e-10 -3.56338e-08 -0.00129481 -1.75248e-05 0.0208107 
0 0 0 0 0 0 0 0 
0 0 0 0 0 0 0 0 
6.29998e-05 -7.88346e-10 -1.60299e-09 4.38036e-10 -7.53511e-08 -6.27534e-05 -5.56544e-06 0.0232443 
0.00011351 0 -8.51322e-10 5.41996e-12 1.41151e-23 -0.000113507 7.22647e-07 0 
0.000456002 -2.70198e-11 -1.27222e-08 9.90263e-10 -9.65551e-07 -0.000454626 3.53869e-05 4.4759e-17 
0.00037208 -4.34792e-11 -3.44177e-09 6.15315e-10 -4.6267e-06 -0.000366245 6.54768e-05 -1.47072e-17 
0.00229694 -6.06908e-10 -2.17185e-08 9.4428e-09 -5.88441e-05 -0.00210576 0.000915548 -4.28816e-16 
2.6746e-05 -7.66226e-12 -3.75597e-10 1.45759e-10 -5.08571e-07 -2.49297e-05 9.67452e-06 0 
0 0 0 0 0 0 0 0 
0 0 0 0 0 0 0 0 
0.000785013 -1.7653e-10 -1.27163e-08 2.91815e-09 -1.06207e-05 -0.000765055 0.000175566 -3.01426e-16 
0.000248545 -7.10449e-11 -2.30366e-09 1.11123e-09 -6.90122e-06 -0.000223774 0.000107944 0 
0.000354564 -1.17698e-10 -3.34501e-09 1.54822e-09 -1.1316e-05 -0.000321605 0.000148853 2.32543e-17 
0.000177274 8.52727e-10 -1.18063e-09 5.17796e-10 -6.27846e-06 -0.000165311 6.37105e-05 0.0463367 
0 0 0 0 0 0 0 0 
0.0020325 -8.24406e-09 -1.33149e-08 8.51418e-09 -9.49614e-05 -0.00185124 0.000833655 2.78589 
0.000267506 -1.07407e-09 -1.35751e-09 1.86047e-09 -1.57387e-05 -0.000240356 0.000116365 0.0632832 
0.000269257 -4.41854e-09 -7.59074e-09 -3.30165e-10 -6.6247e-07 -0.000267813 2.7836e-05 0.184159 
2.57476e-05 -4.87594e-12 -2.99881e-10 1.07206e-10 -3.94165e-07 -2.4242e-05 8.66641e-06 1.3966e-18 
0.000641828 -1.3545e-09 -3.42198e-09 1.99825e-09 -3.62879e-05 -0.000491374 0.000411313 -0.0196624 
0.00580141 -1.29728e-09 -7.78005e-09 2.16656e-08 -0.000326416 -0.00195758 0.00545139 1.11283e-15 
0.000257146 -7.4672e-11 -6.34216e-10 1.99816e-09 -9.15354e-06 -7.77443e-05 0.000244941 -2.71076e-16 
0.00189919 -5.28449e-09 -7.71208e-09 1.70206e-08 -4.72993e-05 -0.00044556 0.00184558 2.36934 
0.000194188 -1.16249e-09 -8.55751e-10 3.71272e-09 -1.33446e-06 -1.806e-05 0.000193342 0.0195776 
0.000154794 -5.97533e-13 -7.39125e-12 1.16096e-09 -7.96694e-08 -9.85479e-07 0.000154791 0 
0.000459856 -1.17212e-10 -8.20386e-10 1.58075e-09 -3.01996e-05 -0.000211373 0.00040728 1.7805e-17 
0 0 0 0 0 0 0 0 
0.00141942 -4.67989e-10 -4.46435e-09 8.73648e-09 -6.76299e-05 -0.000645152 0.00126252 -6.39136e-16 
0.00103859 -3.78793e-10 -3.033e-09 7.70221e-09 -4.7476e-05 -0.000380141 0.000965356 2.77161e-16 
0.000427545 -1.37953e-10 -1.26471e-09 3.14885e-09 -1.73671e-05 -0.000159216 0.000396413 0 
0.00215091 -5.06095e-10 -8.00646e-09 2.10497e-08 -4.83234e-05 -0.000764481 0.00200989 2.53377e-15 
0.000357805 -2.12551e-11 -1.04241e-09 3.63234e-09 -7.78538e-06 -0.00011193 0.000339759 0.0267895 
0.00103913 -1.97798e-10 -2.915e-09 1.10983e-08 -1.79095e-05 -0.000263936 0.00100489 0 
0.000214644 5.76998e-10 -1.32347e-09 3.56336e-09 -1.08125e-06 -2.78795e-05 0.000212823 -0.0061622 
0 0 0 0 0 0 0 0 
0.00138062 -4.06364e-10 -3.42258e-09 1.72288e-08 -3.19309e-05 -0.000268936 0.00135379 -1.2272e-15 
0.000122351 -1.12469e-11 -5.0186e-10 2.98561e-09 -4.54521e-07 -2.02817e-05 0.000120658 1.1171e-17 
0.000242945 -5.8266e-11 -1.20899e-09 2.75094e-09 -4.70993e-06 -9.77287e-05 0.000222372 1.67583e-17 
0.000722666 2.33479e-10 1.15603e-09 3.14399e-09 -3.52542e-05 0.000211886 0.000690006 -0.0413512 
0.00109458 -4.21492e-09 4.91238e-09 1.70635e-08 -7.75466e-06 0.000215604 0.00107311 0.482014 
0.000136423 -3.33961e-11 3.04802e-10 1.7182e-09 -2.61038e-06 2.38245e-05 0.000134302 2.70077e-17 
0.00205217 -1.14703e-09 5.84013e-09 2.54469e-08 -4.74625e-05 0.000399752 0.0020123 -0.0665714 
7.7633e-05 -3.32023e-11 4.00964e-10 6.86982e-10 -3.23766e-06 3.90993e-05 6.69898e-05 -8.42333e-19 
0 0 0 0 0 0 0 0 
0 0 0 0 0 0 0 0 
0 0 0 0 0 0 0 0 
0.000228687 -2.64252e-10 3.07101e-10 3.83275e-09 -3.19492e-06 5.80891e-05 0.000221163 0.0610393 
0.000459699 -1.50551e-10 1.79771e-09 4.50595e-09 -1.4259e-05 0.000170264 0.000426767 1.30901e-17 
7.10617e-05 -2.24485e-11 1.62495e-10 5.61309e-10 -2.72788e-06 1.97459e-05 6.82087e-05 -1.04968e-18 
0.000765327 -3.41971e-10 4.20729e-09 6.59487e-09 -3.34248e-05 0.000411228 0.000644593 0 
0.000312401 1.74727e-09 4.10719e-10 2.60582e-09 -1.42804e-05 0.000114344 0.000290373 0.0899476 
0.000618167 -5.56275e-10 1.78761e-09 4.53442e-09 -3.56516e-05 0.000240066 0.000568531 -0.00548803 
0.000322368 -3.45136e-11 1.50529e-09 9.37342e-09 -1.17196e-06 5.11143e-05 0.000318288 7.509e-17 
0.00104716 -2.53781e-10 2.39063e-09 9.90234e-09 -2.60795e-05 0.000245671 0.0010176 2.13046e-17 
0.000712259 -1.81549e-10 1.27067e-09 2.44837e-09 -4.67761e-05 0.00032739 0.000630825 0 
0.0002595 -1.39117e-08 -1.41662e-09 -7.78767e-08 0 0 -0.0002595 0.0702761 
0 0 0 0 0 0 0 0 
0.000410043 -1.31681e-09 1.08721e-08 8.77609e-10 0 0.000407652 4.42191e-05 -0.0092428 
0.000740847 -6.70006e-09 1.4337e-08 1.3534e-08 0 0.000558874 0.000486327 0.386447 
0.00152462 0 3.43001e-08 3.65719e-08 0 0.00104297 0.00111205 -1.70205e-16 
0.000311709 0 1.00272e-08 2.13086e-09 0 0.0003049 6.47936e-05 0 
0.00111336 -4.46628e-09 4.7696e-09 -3.63177e-08 0 0.000175973 -0.00109937 0.320086 
0.00050269 0 1.14701e-08 -1.19055e-08 0 0.000348773 -0.000362014 1.05065e-18 
0.000325639 0 1.05043e-08 -2.08534e-09 0 0.000319406 -6.34096e-05 7.35454e-18 
0.000645046 -2.88456e-09 1.36672e-08 -1.235e-08 0 0.000287953 -0.000577207 0.730985 
0.00040913 -7.15652e-10 9.40638e-09 -5.47371e-09 0 0.000359045 -0.000196147 0.0153781 
0.000481718 -3.16802e-10 5.99127e-12 -7.76571e-09 0 -3.08021e-05 -0.000480732 0.0287336 
0 0 0 0 0 0 0 0 
0 0 0 0 0 0 0 0 
0.000245384 0 -5.33032e-09 -3.76335e-09 0 -0.000200457 -0.000141528 -5.19767e-18 
0.000596694 -3.84467e-09 -1.80883e-08 -9.93893e-09 0 -0.000408192 -0.000435228 0.449905 
0.000594205 -5.57702e-10 -1.92454e-08 -3.447e-09 0 -0.000581226 -0.000123515 -0.00310453 
0.000932672 0 -4.848e-09 3.02871e-08 0 -0.000147414 0.000920948 6.28287e-16 
0.00151421 -2.52201e-09 -3.46123e-08 3.58024e-08 0 -0.00105058 0.00109047 0.506614 
0.000401635 -1.10954e-09 -1.31672e-08 1.50645e-09 0 -0.000393947 7.82077e-05 -0.00143913 
0.000881284 -7.73328e-09 -6.82102e-09 2.2474e-08 0 -0.000311612 0.000824354 0.495837 
0.0010645 0 -2.33403e-08 1.6014e-08 0 -0.000877759 0.000602238 -1.71523e-16 
0.000565748 4.88387e-10 -1.64534e-09 -1.72183e-09 0 -0.000565325 2.18605e-05 -0.219621 
0 0 0 0 0 0 0 0 
0.00114321 -1.30114e-08 1.20645e-08 -1.90695e-08 -0.000571056 0.000529496 -0.000836937 -3.03295e-18 