ITEM: TIMESTEP
115
ITEM: NUMBER OF SURFS
6916
ITEM: BOX BOUNDS oo rr rr
-0.35 0.35
-0.25 0.25
-0.25 0.25
ITEM: SURFS f_save[1] f_save[2] f_save[3] f_save[4] f_save[5] f_save[6] f_save[7] f_save[8] 
0.0103372 -7.75617e-08 -1.31743e-09 -3.48379e-09 -0.0103372 0 0 6.12223 
0 0 0 0 0 0 0 0 
0 0 0 0 0 0 0 0 
0 0 0 0 0 0 0 0 
0 0 0 0 0 0 0 0 
0 0 0 0 0 0 0 0 
0 0 0 0 0 0 0 0 
0 0 0 0 0 0 0 0 
0.0143857 -3.41661e-08 0 0 -0.0143857 0 0 0 
0 0 0 0 0 0 0 0 
0 0 0 0 0 0 0 0 
0 0 0 0 0 0 0 0 
0.0215242 -5.24653e-08 0 0 -0.0215242 0 0 0 
0 0 0 0 0 0 0 0 
0 0 0 0 0 0 0 0 
0 0 0 0 0 0 0 0 
0 0 0 0 0 0 0 0 
0.0191365 -4.54492e-08 0 0 -0.0191365 0 0 0 
0 0 0 0 0 0 0 0 
0 0 0 0 0 0 0 0 
0.015007 -3.56416e-08 0 0 -0.015007 0 0 0 
0 0 0 0 0 0 0 0 
0 0 0 0 0 0 0 0 
0 0 0 0 0 0 0 0 
0 0 0 0 0 0 0 0 
0 0 0 0 0 0 0 0 
0 0 0 0 0 0 0 0 
0.00935601 -2.22205e-08 0 0 -0.00935601 0 0 0 
0 0 0 0 0 0 0 0 
0 0 0 0 0 0 0 0 
0.0010822 -5.14046e-08 -1.82607e-10 -1.29828e-09 -0.0010822 0 0 0.678826 
0.00370634 -3.18746e-07 1.40346e-09 -3.67459e-09 -0.00370634 0 0 0.993359 
0.00208515 -9.90446e-08 0 0 -0.00208515 0 0 0 
0 0 0 0 0 0 0 0 
0 0 0 0 0 0 0 0 
0 0 0 0 0 0 0 0 
0.00120712 2.86692e-09 0 0 0.00120712 0 0 0 
0.003498 4.26318e-09 0 0 0.003498 0 0 0 
0 0 0 0 0 0 0 0 
0 0 0 0 0 0 0 0 
0 0 0 0 0 0 0 0 
0 0 0 0 0 0 0 0 
0 0 0 0 0 0 0 0 
0 0 0 0 0 0 0 0 
0.000904951 2.14926e-09 0 0 0.000904951 0 0 0 
0 0 0 0 0 0 0 0 
0 0 0 0 0 0 0 0 
0.00112944 2.68241e-09 0 0 0.00112944 0 0 0 
0 0 0 0 0 0 0 0 
0 0 0 0 0 0 0 0 
0 0 0 0 0 0 0 0 
0 0 0 0 0 0 0 0 
0 0 0 0 0 0 0 0 
0 0 0 0 0 0 0 0 
0 0 0 0 0 0 0 0 
0 0 0 0 0 0 0 0 
0.00205936 5.0197e-09 0 0 0.00205936 0 0 0 
0.00121702 2.96648e-09 -1.7691e-09 3.37605e-09 0.00121702 0 0 -0.242646 
0 0 0 0 0 0 0 0 
0 0 0 0 0 0 0 0 
0 0 0 0 0 0 0 0 
0 0 0 0 0 0 0 0 
1.19562e-05 -2.70086e-07 2.35216e-07 2.49214e-07 0 8.45428e-06 8.45428e-06 0.0168339 
1.00911e-05 -1.44516e-07 -9.1381e-08 -9.27138e-08 0 -7.13546e-06 -7.13546e-06 0.0191094 
0.000207508 -1.76493e-08 1.18279e-07 8.54867e-10 0 0.000207508 0 0.0539122 
0.000322897 -2.465e-08 -1.84051e-07 -1.19321e-08 0 -0.000322897 0 0.10297 
0.000181879 1.61218e-09 1.03671e-07 3.53563e-09 0 0.000181879 0 -0.000744722 
0.000341858 -2.54643e-08 -1.94859e-07 -1.24041e-08 0 -0.000341858 0 0.0645681 
0.000359855 -6.52761e-10 2.05117e-07 3.14523e-09 0 0.000359855 0 -0.00386946 
0.000334618 -4.7971e-09 -1.17615e-08 1.90732e-07 0 0 0.000334618 0.012138 
0.000196595 -2.02008e-08 2.0349e-09 1.15008e-07 0 0 0.000196595 0.0837189 
0.00023736 7.6107e-09 -1.01317e-09 -1.38856e-07 0 0 -0.00023736 -0.00204102 
0.000324356 1.41782e-08 4.38562e-10 1.89748e-07 0 0 0.000324356 -0.00561509 
0.000273836 -1.12732e-08 1.56086e-07 2.23577e-09 0 0.000273836 0 0.0514637 
0.000142192 -2.3739e-08 8.31821e-08 -7.50444e-09 0 0.000142192 0 0.0782912 
8.35658e-05 -2.07261e-08 -5.70541e-09 -4.76325e-08 0 0 -8.35658e-05 0.0659685 
0.000359202 2.45435e-09 2.04745e-07 -4.02941e-10 0 0.000359202 0 0.00327613 
0.00020097 -4.32108e-09 -1.14553e-07 -5.01352e-09 0 -0.00020097 0 -0.00193516 
0.000389929 -3.36905e-08 -1.0461e-08 2.2226e-07 0 0 0.000389929 0.117047 
9.64895e-05 3.9586e-09 1.21581e-10 5.4999e-08 0 0 9.64895e-05 0.00333347 
0.000242708 -2.99134e-09 4.05412e-09 -1.38343e-07 0 0 -0.000242708 -0.000860676 
0.000131619 1.76197e-09 -7.50229e-08 -1.00819e-08 0 -0.000131619 0 0.00163658 
0.000140415 4.62692e-09 8.00367e-08 2.34843e-10 0 0.000140415 0 0.000928287 
0.000186594 -1.3226e-09 3.78712e-10 -1.06359e-07 0 0 -0.000186594 -0.00353433 
0.000240688 -5.96722e-09 1.40803e-07 -3.48556e-09 0 0.000240688 0 -0.00107789 
0.000236949 5.03694e-09 -5.01514e-09 1.38615e-07 0 0 0.000236949 -0.000230245 
0.000253806 1.49661e-11 -1.48476e-07 -3.04566e-09 0 -0.000253806 0 0.00392159 
0.000184871 5.54689e-10 3.77413e-09 -1.05377e-07 0 0 -0.000184871 0.000665499 
0.000184792 -1.88706e-09 -1.08103e-07 -3.21279e-10 0 -0.000184792 0 -0.00100445 
0.000215698 3.88173e-09 3.65004e-09 1.26183e-07 0 0 0.000215698 -0.00458347 
7.43432e-05 3.57158e-10 -9.6362e-10 -4.23756e-08 0 0 -7.43432e-05 -0.00310063 
7.87615e-05 -1.85362e-08 -4.60755e-08 -4.08528e-10 0 -7.87615e-05 0 0.047332 
0.000192983 -4.95271e-10 -1.1e-07 -8.686e-09 0 -0.000192983 0 0.000830702 
0.000189032 5.50785e-10 -1.57802e-09 5.52918e-08 0 0 0.000189032 -0.00236183 
0.00016214 1.40307e-09 -1.05603e-09 9.24196e-08 0 0 0.00016214 -0.000676945 
0.000272202 -2.81277e-08 3.98299e-09 -1.55155e-07 0 0 -0.000272202 0.0798934 
0.000120899 1.14981e-09 -2.76467e-09 6.89125e-08 0 0 0.000120899 -0.00022542 
0.000153638 -2.38134e-08 -8.75736e-08 2.31771e-09 0 -0.000153638 0 0.081239 
0.000320919 4.50361e-09 9.43977e-10 -1.82924e-07 0 6.29238e-11 -0.000320919 -0.00287919 
7.92906e-05 -6.424e-10 -4.51957e-08 3.36163e-09 0 -7.92906e-05 0 -0.000667599 
0.000145472 -4.48643e-08 -8.29192e-08 3.03675e-09 0 -0.000145472 0 0.131677 
5.33697e-05 1.9867e-09 -4.30386e-10 3.04207e-08 0 0 5.33697e-05 -4.28556e-05 
0.000417563 -3.33954e-09 2.38011e-07 8.70139e-09 0 0.000417563 0 0.0351404 
4.70523e-05 1.68589e-09 1.88042e-09 -2.68198e-08 0 0 -4.70523e-05 -0.00519488 
0.000180295 3.68889e-09 -1.02768e-07 1.50859e-09 0 -0.000180295 0 -0.0041992 
6.79309e-05 -1.05472e-09 9.95889e-10 -3.87206e-08 0 0 -6.79309e-05 -0.00348719 
0.000224401 1.20774e-09 1.59909e-08 9.77999e-10 -4.26895e-07 0.000224401 0 -0.00713235 
0.000257436 -3.17027e-10 4.65871e-09 -2.12091e-10 -1.74602e-05 0.000256578 -1.16809e-05 4.96429e-17 
0 0 0 0 0 0 0 0 
0.000921088 -5.14929e-10 1.65652e-08 -8.71281e-10 -2.85787e-05 0.000919374 -4.83563e-05 -3.33509e-17 
0.000128283 -3.71925e-11 2.11469e-09 -2.39192e-11 -2.25572e-06 0.000128255 -1.45069e-06 0 
0 0 0 0 0 0 0 0 
0.000341543 -3.07063e-10 8.21084e-09 1.36728e-09 -1.80711e-07 0.000341512 4.54908e-06 -0.0364275 
0.000336788 -1.89135e-11 6.25092e-09 -1.13631e-09 -1.28885e-05 0.000336475 6.65963e-06 -0.0460764 
0 0 0 0 0 0 0 0 
0.000382944 -1.63458e-09 2.7284e-08 -7.44681e-10 -1.82412e-07 0.000382944 0 -0.0545554 
6.39976e-05 -8.67453e-12 0 4.55983e-09 -1.21748e-07 0 6.39975e-05 -3.68982e-18 
0.000210848 -3.67596e-09 2.64209e-09 3.47076e-09 -1.43004e-05 9.56697e-06 0.000210145 0.0103528 
0.000117645 -2.07968e-11 6.58052e-11 1.89646e-09 -1.28926e-06 4.07947e-06 0.000117567 4.65657e-18 
5.1944e-05 4.81404e-10 3.52401e-10 9.341e-10 -1.61167e-06 2.72701e-06 5.18474e-05 -0.00226392 
0 0 0 0 0 0 0 0 
0 0 0 0 0 0 0 0 
0.000149728 -1.90861e-12 -4.80458e-11 3.60694e-09 -7.92216e-08 -1.99426e-06 0.000149715 1.5589e-18 
0.000207882 -1.47004e-10 -7.59589e-11 3.83779e-09 -7.95538e-06 -4.11064e-06 0.000207689 -4.87792e-17 
0 0 0 0 0 0 0 0 
8.84548e-05 -3.00209e-12 0 6.3024e-09 -4.21346e-08 0 8.84548e-05 0 
0.000369367 3.24046e-09 -2.63237e-08 2.64632e-09 -7.02675e-07 -0.000369366 0 -0.0157449 
0.000346918 -4.27221e-10 -6.27801e-09 2.85811e-10 -2.35292e-05 -0.000345761 1.5741e-05 1.24107e-17 
0.00011737 -2.07482e-11 -1.89203e-09 6.56514e-11 -1.28625e-06 -0.000117293 4.06994e-06 -9.31314e-18 
0.000269737 -1.50795e-10 -4.85106e-09 2.55151e-10 -8.36914e-06 -0.000269235 1.41609e-05 4.16886e-18 
0 0 0 0 0 0 0 0 
0 0 0 0 0 0 0 0 
0.000381062 -4.85747e-12 -9.17976e-09 -1.22278e-10 -2.01621e-07 -0.000381028 -5.07544e-06 3.58547e-17 
0.000198614 -1.4045e-10 -3.66669e-09 -7.25724e-11 -7.6007e-06 -0.000198429 -3.92738e-06 -8.12987e-18 
0 0 0 0 0 0 0 0 
0.000425261 -1.4433e-11 -3.02998e-08 0 -2.02569e-07 -0.000425261 0 1.29144e-17 
0.000435173 1.16495e-09 2.23469e-10 -3.10084e-08 -8.27864e-07 0 -0.000435172 0.000503113 
0 0 0 0 0 0 0 0 
0.000257729 -2.75059e-08 -8.71697e-11 -3.85547e-09 -2.82442e-06 -8.93702e-06 -0.000257559 2.59835 
9.83653e-05 -4.51358e-10 7.85605e-10 -1.80294e-09 -3.05199e-06 -5.16409e-06 -9.81823e-05 -0.00136458 
0.000340441 5.13925e-10 1.02265e-09 -5.63507e-09 -5.98628e-06 -3.84988e-06 -0.000340367 -0.037668 
0 0 0 0 0 0 0 0 
0.000348749 -2.59068e-08 2.4946e-09 -8.35591e-09 -1.84524e-07 4.64506e-06 -0.000348718 2.14331 
0.000818199 -5.78592e-10 2.98966e-10 -1.51051e-08 -3.13115e-05 1.6179e-05 -0.000817439 -4.47143e-17 
0.000271564 -5.28596e-11 1.519e-10 -4.37765e-09 -3.27689e-06 9.41663e-06 -0.000271381 -4.65651e-18 
0.000210481 -7.80206e-10 8.4299e-10 -1.49964e-08 -1.00261e-07 0 -0.000210481 -0.00563684 
0 0 0 0 0 0 0 0 
0 0 0 0 0 0 0 0 
0 0 0 0 0 0 0 0 
0 0 0 0 0 0 0 0 
0 0 0 0 0 0 0 0 
0 0 0 0 0 0 0 0 
0 0 0 0 0 0 0 0 
0 0 0 0 0 0 0 0 
0 0 0 0 0 0 0 0 
0 0 0 0 0 0 0 0 
0 0 0 0 0 0 0 0 
0 0 0 0 0 0 0 0 
0 0 0 0 0 0 0 0 
0 0 0 0 0 0 0 0 
0 0 0 0 0 0 0 0 
0 0 0 0 0 0 0 0 
0.000155306 -6.35522e-10 3.5865e-09 -9.63119e-11 -2.70883e-05 0.00015287 -4.10517e-06 1.28066e-17 
0 0 0 0 0 0 0 0 
0.000968887 -1.58672e-09 7.15568e-09 -5.8052e-10 -0.000209094 0.000942958 -7.64995e-05 0 
0.000145525 -4.67746e-10 2.48653e-09 -2.06314e-10 -2.68141e-05 0.000142543 -1.18272e-05 0 
0.000835837 2.47235e-10 1.6428e-08 -1.18684e-09 -0.000162945 0.000814372 -9.41844e-05 0.0129219 
0.000850956 -1.21777e-09 5.77624e-09 -1.67367e-09 -0.000201137 0.000821325 -9.53635e-05 0.055477 
0 0 0 0 0 0 0 0 
0 0 0 0 0 0 0 0 
0.000327683 -8.65257e-11 3.83416e-09 -9.77074e-10 -7.63423e-05 0.000311213 -6.8516e-05 0.0475018 
0.000654885 -2.20208e-09 7.17049e-09 -1.61161e-09 -0.000125685 0.000641965 -3.09583e-05 0.0825727 
0.000259204 -7.37073e-10 2.90807e-09 -6.77629e-10 -6.21186e-05 0.000245085 -5.71087e-05 -3.16521e-17 
9.85433e-05 -3.3045e-10 1.85128e-09 7.006e-11 -1.73041e-05 9.69428e-05 3.66871e-06 -3.93338e-18 
0.000364473 -1.09668e-09 5.09045e-09 4.98813e-10 -7.6411e-05 0.000354675 3.47546e-05 6.28027e-17 
0.000291099 -2.26264e-10 6.7969e-09 2.18899e-09 -5.12945e-05 0.000286342 1.07592e-05 0.0557739 
0.000606988 -1.42037e-09 5.40661e-09 1.09124e-09 -0.000151372 0.000576191 0.000116295 0 
0.00187274 -3.00848e-09 1.21854e-08 1.84502e-09 -0.000444113 0.00179881 0.000272363 -7.09659e-16 
0.000137012 -3.94734e-10 1.66685e-09 2.79806e-10 -3.11602e-05 0.000131581 2.20879e-05 -1.1859e-17 
0.00147964 -4.14871e-09 1.9428e-08 2.40472e-09 -0.000306761 0.00143653 0.000177808 -2.13831e-16 
0 0 0 0 0 0 0 0 
0 0 0 0 0 0 0 0 
0.00104558 -3.39201e-09 1.8673e-08 -2.96813e-09 -0.000204582 0.0010144 0.000149566 0.0582239 
0 0 0 0 0 0 0 0 
0.000534819 -4.64072e-09 1.39524e-09 5.60554e-09 -9.63327e-05 4.89271e-05 0.000523791 -0.0705175 
0.000428267 -7.24399e-10 3.58369e-10 2.94398e-09 -0.00010162 5.02728e-05 0.000412987 0 
0.000438313 -1.39952e-09 5.04724e-10 7.53456e-09 -7.9873e-05 2.88055e-05 0.000430011 2.74362e-16 
0.000226181 -8.23964e-10 3.08373e-10 4.21269e-09 -4.33048e-05 1.62071e-05 0.000221405 -3.94776e-18 
0.00151878 -3.44916e-09 9.6416e-10 1.70062e-08 -0.000301425 8.42585e-05 0.00148618 -5.25143e-17 
0 0 0 0 0 0 0 0 
0.000911643 -2.22898e-09 2.23652e-09 9.62587e-09 -0.000200585 0.000201264 0.000866228 1.3519e-16 
0 0 0 0 0 0 0 0 
8.88627e-05 -3.03926e-10 6.31775e-11 1.66942e-09 -1.59053e-05 3.30625e-06 8.73652e-05 -1.4741e-18 
0.00138668 -3.3135e-09 3.82912e-09 1.30251e-08 -0.00032879 0.000379953 0.00129245 -9.68941e-16 
0.000705824 -1.38191e-09 6.44813e-10 5.35974e-09 -0.000152648 0.000161808 0.000669854 -0.126254 
0.000321574 -1.53251e-09 -8.42662e-10 6.52402e-09 -6.03623e-05 -1.9206e-05 0.000315274 -0.0332498 
0.00120336 -2.03544e-09 -1.00695e-09 8.27207e-09 -0.000285536 -0.000141258 0.00116042 3.39825e-16 
0.00114225 -2.09063e-09 -2.50653e-09 8.16251e-09 -0.000271646 -0.000325687 0.0010606 9.75999e-18 
0.000506192 -7.78932e-10 -2.73953e-10 3.37684e-09 -0.000113421 -3.98907e-05 0.000491706 1.09375e-17 
0.000545397 -1.42925e-09 -1.45654e-09 5.6643e-09 -0.000129472 -0.000131944 0.000513114 -6.8044e-17 
8.65375e-05 -2.013e-10 -1.92453e-10 9.26945e-10 -1.79981e-05 -1.72071e-05 8.28778e-05 6.71593e-18 
0.000639656 -1.37901e-09 -5.75674e-10 6.78424e-09 -0.000126977 -5.30071e-05 0.000624682 0 
8.91052e-05 -2.24405e-09 1.41672e-09 1.28382e-09 -1.72522e-05 -8.60433e-06 8.69946e-05 -0.0179434 
0.000433118 -1.38518e-08 -1.02399e-09 2.81598e-08 -7.51996e-05 -4.6393e-06 0.000426515 0.270701 
0.000290841 -1.07823e-09 -1.84093e-09 6.83189e-09 -5.15807e-05 -2.07257e-05 0.00028548 0.00869617 
0.000643475 -2.81616e-09 -1.49504e-08 -4.17791e-09 -0.000112234 -0.000633383 1.70089e-05 -0.0131702 
0.000392703 -1.17955e-09 -4.66326e-09 9.41204e-10 -9.45076e-05 -0.000373627 7.54106e-05 2.4073e-17 
0 0 0 0 0 0 0 0 
0.000418987 -1.34671e-09 -7.15908e-09 5.94008e-10 -7.72017e-05 -0.000410403 3.40522e-05 -3.01421e-17 
0.000520193 -1.65954e-10 -1.01329e-08 9.74357e-10 -0.000101411 -0.000506834 5.86168e-05 0.00284874 
0 0 0 0 0 0 0 0 
0.000429079 -1.17001e-09 -5.28029e-09 7.952e-10 -9.18365e-05 -0.000414462 6.2417e-05 -3.53753e-17 
0 0 0 0 0 0 0 0 
0.00102602 -1.57305e-08 -8.71542e-09 7.76992e-10 -0.000239037 -0.000974448 0.000214532 2.05901 
0.000190045 -4.19256e-10 -2.14145e-09 1.0327e-10 -3.64733e-05 -0.000186296 8.98398e-06 1.30692e-17 
0.00105623 -3.0035e-09 -1.18501e-08 2.76127e-09 -0.000253127 -0.000998695 0.000232712 0 
0 0 0 0 0 0 0 0 
0 0 0 0 0 0 0 0 
0.000417335 -1.15839e-10 -9.82913e-09 -1.87738e-09 -7.35384e-05 -0.000410515 -1.5425e-05 0.035496 
0.00143948 -3.36843e-09 -1.28218e-08 -2.58788e-09 -0.000358979 -0.00136644 -0.000275795 3.20202e-17 
0 0 0 0 0 0 0 0 
0.000543016 -1.56444e-09 -6.60617e-09 -1.10895e-09 -0.000123496 -0.00052149 -8.75402e-05 1.1859e-17 
0 0 0 0 0 0 0 0 
0.000245963 -5.16238e-10 -2.53881e-09 -2.16898e-10 -4.88399e-05 -0.00024019 -2.05202e-05 0 
0 0 0 0 0 0 0 0 
0.000111662 -3.83548e-10 -1.90179e-09 -2.80405e-10 -2.18481e-05 -0.000108332 -1.59728e-05 8.55751e-18 
0.000452276 -1.0884e-09 -5.08805e-09 -8.58241e-10 -9.33459e-05 -0.000436374 -7.36067e-05 2.57686e-17 
0 0 0 0 0 0 0 0 
0 0 0 0 0 0 0 0 
4.96413e-05 -1.58503e-10 -5.71626e-11 -8.53328e-10 -9.04603e-06 -3.26237e-06 -4.87009e-05 1.07173e-18 
0 0 0 0 0 0 0 0 
0.000831917 -2.99846e-08 -3.40619e-09 -3.4538e-09 -0.000165107 -4.6153e-05 -0.000814062 3.6373 
0.000766915 -6.28214e-09 -3.96485e-09 -9.862e-09 -0.000159171 -6.02271e-05 -0.000747794 0.15 
0.000205769 1.42524e-10 -1.35029e-09 -2.12573e-09 -4.52743e-05 -4.54276e-05 -0.000195518 0.0116638 
0 0 0 0 0 0 0 0 
0.000734005 -2.51042e-09 -5.21845e-10 -1.37894e-08 -0.000131377 -2.73096e-05 -0.000721635 -5.11022e-17 
0 0 0 0 0 0 0 0 
0 0 0 0 0 0 0 0 
0 0 0 0 0 0 0 0 
0.00250981 -4.24526e-09 2.10018e-09 -1.72528e-08 -0.000595534 0.000294618 -0.00242027 -2.02314e-15 
0.000566279 -1.03644e-09 1.24263e-09 -4.04663e-09 -0.000134671 0.000161462 -0.0005258 -2.44e-17 
0 0 0 0 0 0 0 0 
0 0 0 0 0 0 0 0 
0 0 0 0 0 0 0 0 
0.000335698 3.05811e-10 8.8394e-10 -3.72034e-09 -6.66387e-05 2.78187e-05 -0.000327839 -0.0352677 
0.00162535 -1.67152e-09 3.84514e-09 -2.82678e-08 -0.000314694 0.00015695 -0.00158685 -0.0443923 
0.000194876 -8.6265e-10 1.51275e-09 -1.36055e-08 -3.38352e-05 2.0874e-06 -0.000191905 0.0148072 
0.000412341 -3.92734e-09 -3.15886e-09 -9.67135e-09 -7.31286e-05 2.93839e-05 -0.000404739 -0.0216949 
0.000936917 -3.66204e-10 3.96285e-09 -6.1492e-11 -5.27156e-05 0.00088039 0.000316146 -0.0246517 
0.00247416 -5.56079e-10 1.08837e-08 3.34216e-09 -0.000120698 0.00236234 0.000725424 1.42658e-16 
0 0 0 0 0 0 0 0 
0 0 0 0 0 0 0 0 
0.000321381 -1.11344e-11 8.96634e-09 6.97918e-10 -3.97888e-07 0.000320412 2.49401e-05 1.3421e-17 
0.00201023 -5.12384e-10 6.91014e-09 3.58627e-09 -0.000132016 0.0017804 0.000924004 2.32239e-16 
0.000373946 -1.53409e-10 2.72427e-09 1.15034e-09 -1.93731e-05 0.000344031 0.000145269 5.69144e-17 
0.00739765 -1.63961e-09 3.28846e-08 1.90523e-08 -0.000318852 0.006395 0.00370507 -1.86974e-15 
0.000565737 -2.31359e-10 4.19551e-09 1.65212e-09 -2.89896e-05 0.000525703 0.000207013 0 
0 0 0 0 0 0 0 0 
0.000125982 -3.48913e-11 1.23292e-09 4.68951e-10 -3.33121e-06 0.000117711 4.47725e-05 -1.79286e-18 
0 0 0 0 0 0 0 0 
0 0 0 0 0 0 0 0 
0 0 0 0 0 0 0 0 
7.87307e-05 -7.08208e-12 1.92347e-09 3.08775e-10 -2.86214e-07 7.77349e-05 1.24788e-05 -2.27674e-18 
0.00113433 -4.16673e-10 7.62088e-09 5.42756e-09 -5.04674e-05 0.000923041 0.000657385 -2.84307e-16 
0 0 0 0 0 0 0 0 
0.000478461 -9.01047e-11 2.37245e-09 9.14343e-10 -1.69454e-05 0.000446172 0.000171955 -7.06313e-18 
0 0 0 0 0 0 0 0 
0 0 0 0 0 0 0 0 
0.000686265 -1.82976e-10 7.39755e-09 -1.75434e-09 -1.65117e-05 0.000667551 -0.000158311 -1.35565e-17 
0.000754426 -1.67149e-10 8.21258e-09 -1.75609e-09 -1.50122e-05 0.000737602 -0.000157721 5.39703e-17 
0 0 0 0 0 0 0 0 
0.0115261 -5.91487e-09 7.61021e-08 -4.5066e-08 -0.000769105 0.00989548 -0.00585988 -3.75054e-15 
0.000652701 -3.67444e-11 1.08351e-08 -1.43938e-09 -2.19417e-06 0.000647014 -8.59518e-05 -1.34562e-16 
0.000859831 -1.22754e-10 6.88752e-09 -1.809e-09 -1.48195e-05 0.000831501 -0.000218393 0 
8.52305e-05 -1.55266e-09 6.1913e-10 -8.24762e-10 -2.23292e-06 8.00674e-05 -2.91284e-05 -0.0146982 
0.00218 8.09019e-10 1.93709e-08 -1.12481e-08 -8.29521e-05 0.00188141 -0.0010981 0.0297252 
0.000319055 -1.42564e-10 2.74932e-09 -1.75397e-09 -1.39344e-05 0.000268723 -0.000171436 -1.46836e-17 
0 0 0 0 0 0 0 0 
0.00338276 -6.86303e-10 1.29558e-08 -4.41587e-09 -0.0001694 0.00319786 -0.00108996 -1.18658e-15 
0.000713096 -1.63557e-10 2.72031e-09 -9.91854e-10 -4.02165e-05 0.000668887 -0.000243883 -1.84695e-17 
0.000562124 2.33162e-09 1.09136e-08 -1.4013e-09 -1.53591e-06 0.000560646 -4.07027e-05 -0.0333358 
0 0 0 0 0 0 0 0 
0.01143 -2.9134e-09 3.92903e-08 -2.03912e-08 -0.000750641 0.0101232 -0.0052538 -4.95443e-15 
0 0 0 0 0 0 0 0 
0.00809477 -4.07796e-10 2.37601e-09 -7.95908e-09 -0.000396939 0.00231275 -0.00774719 4.38687e-16 
0.00124118 -1.90682e-10 2.39004e-09 -1.32985e-08 -3.14746e-05 0.000367956 -0.00118497 0.0228909 
0.000194032 1.30835e-09 -2.42247e-09 -4.13473e-09 -2.37421e-06 2.59992e-05 -0.000192267 -0.0421775 
0.00178309 -9.33188e-10 8.80056e-09 -1.03161e-08 -0.000122422 0.00115451 -0.00135333 1.26131e-15 
0.00329199 -7.60597e-10 5.1216e-09 -1.21291e-08 -0.000189859 0.00127845 -0.00302766 1.40625e-16 
0 0 0 0 0 0 0 0 
0 0 0 0 0 0 0 0 
0.000326199 1.3259e-09 -7.38748e-11 -2.89396e-09 -1.33387e-05 0.000125555 -0.000300772 0.086259 
0 0 0 0 0 0 0 0 
0.00197198 -1.73324e-09 -4.39016e-09 -2.34504e-08 -4.14823e-05 0.000534863 -0.00189761 3.23318 
0 0 0 0 0 0 0 0 
0.000268659 -4.75763e-11 9.98695e-10 -4.35197e-09 -2.86245e-06 6.00869e-05 -0.000261838 0 
0 0 0 0 0 0 0 0 
0 0 0 0 0 0 0 0 
0.00186289 -3.1218e-09 9.89529e-09 -2.82871e-08 -2.8757e-05 0.000571816 -0.00177272 0.00246574 
0 0 0 0 0 0 0 0 
0.000132281 3.44731e-13 -3.20743e-12 -7.70113e-10 5.92134e-08 -5.50929e-07 -0.00013228 -2.58043e-17 
0.000214212 -7.50836e-11 -5.10155e-10 -1.93805e-09 -8.01993e-06 -5.44913e-05 -0.00020701 8.0232e-18 
0.000123659 -1.50599e-11 -2.77027e-10 -2.11474e-09 -8.73145e-07 -1.60615e-05 -0.000122608 4.35497e-18 
0.000171077 -3.84044e-11 -4.58763e-10 -1.80846e-09 -3.5207e-06 -4.20568e-05 -0.000165789 -1.37721e-17 
0.000483584 -1.30602e-10 -1.42417e-09 -5.05269e-09 -1.20272e-05 -0.000131152 -0.000465304 2.76692e-17 
0.00121889 1.0456e-09 -2.35125e-09 -6.01281e-09 -5.01965e-05 -0.000485897 -0.00111673 0.2038 
0.00038545 -1.99112e-10 -1.63886e-09 -2.44e-09 -2.60512e-05 -0.000214423 -0.000319243 0 
0 0 0 0 0 0 0 0 
0.000722419 -1.59249e-10 -2.21582e-09 -1.21813e-08 -9.2911e-06 -0.000129278 -0.000710697 -1.22707e-16 
0.00130127 -3.66806e-10 -5.26793e-09 -1.25146e-08 -3.51401e-05 -0.000504669 -0.0011989 0 
0 0 0 0 0 0 0 0 
0.000729072 -1.8084e-09 -2.54737e-09 -5.12423e-09 -2.98127e-05 -0.000280622 -0.000672241 -0.264246 
0.000229098 -6.27883e-10 -4.47196e-10 -1.53725e-09 -1.12664e-05 -0.000124114 -0.000192236 -0.0059511 
0 0 0 0 0 0 0 0 
0 0 0 0 0 0 0 0 
0.000225646 2.77552e-09 4.78164e-09 -4.44127e-09 -9.77872e-07 -2.37479e-05 -0.000224391 0.133509 
0 0 0 0 0 0 0 0 
0 0 0 0 0 0 0 0 
0.000242627 -1.03349e-10 -1.19449e-09 -1.14869e-09 -1.51018e-05 -0.000174545 -0.000167852 -3.29281e-17 
0 0 0 0 0 0 0 0 
0 0 0 0 0 0 0 0 
0.000579267 -9.34555e-11 -9.76752e-09 -1.77674e-09 -5.45269e-06 -0.000569889 -0.000103665 8.76514e-18 
0 0 0 0 0 0 0 0 
0 0 0 0 0 0 0 0 
0.00117226 -4.57371e-10 -1.03735e-08 -6.05458e-09 -4.46062e-05 -0.0010117 -0.000590487 0 
0 0 0 0 0 0 0 0 
0 0 0 0 0 0 0 0 
0 0 0 0 0 0 0 0 
0 0 0 0 0 0 0 0 
0 0 0 0 0 0 0 0 
0.000820917 -7.29706e-09 -1.36147e-08 -1.39597e-09 -6.38431e-06 -0.000805436 -0.000158546 1.24467 
0.00268301 -3.16187e-09 -6.33577e-08 -1.65618e-09 -7.38311e-08 -0.00268276 -3.63104e-05 0.0452407 
0 0 0 0 0 0 0 0 
0 0 0 0 0 0 0 0 
0.000136956 -1.7138e-09 -3.48476e-09 9.52251e-10 -1.63807e-07 -0.000136421 -1.20988e-05 0.050531 
0.00024676 0 -1.8507e-09 1.17825e-11 3.0685e-23 -0.000246755 1.57097e-06 0 
0.000333062 -1.97352e-11 -9.29223e-09 7.23284e-10 -7.05235e-07 -0.000332057 2.58465e-05 3.62367e-17 
0.00080887 -9.452e-11 -7.4821e-09 1.33764e-09 -1.00581e-05 -0.000796184 0.000142341 -3.19722e-17 
0 0 0 0 0 0 0 0 
5.81434e-05 -1.66571e-11 -8.16516e-10 3.16867e-10 -1.10559e-06 -5.4195e-05 2.10316e-05 0 
0 0 0 0 0 0 0 0 
0 0 0 0 0 0 0 0 
0 0 0 0 0 0 0 0 
0.000540314 -1.54445e-10 -5.00795e-09 2.41572e-09 -1.50026e-05 -0.000486466 0.00023466 0 
0 0 0 0 0 0 0 0 
0.000385379 1.85375e-09 -2.56658e-09 1.12564e-09 -1.36488e-05 -0.000359372 0.000138501 0.100732 
0 0 0 0 0 0 0 0 
0.0038788 -1.77233e-08 -2.50748e-08 1.6766e-08 -0.000181223 -0.00353287 0.00159094 6.05629 
0 0 0 0 0 0 0 0 
0.000212434 -9.57987e-09 -6.1333e-09 -1.79541e-09 -5.22666e-07 -0.000211295 2.19617e-05 0.400345 
5.5973e-05 -1.05999e-11 -6.51914e-10 2.33056e-10 -8.56882e-07 -5.27001e-05 1.884e-05 3.03608e-18 
0 0 0 0 0 0 0 0 
0 0 0 0 0 0 0 0 
0 0 0 0 0 0 0 0 
0.00412868 -1.1488e-08 -1.67654e-08 3.70014e-08 -0.000102825 -0.000968609 0.00401213 5.15075 
0 0 0 0 0 0 0 0 
0 0 0 0 0 0 0 0 
0 0 0 0 0 0 0 0 
0 0 0 0 0 0 0 0 
0 0 0 0 0 0 0 0 
0.00225781 -8.23463e-10 -6.59349e-09 1.67439e-08 -0.000103209 -0.000826394 0.0020986 6.02524e-16 
0 0 0 0 0 0 0 0 
0.0046759 -1.10021e-09 -1.74054e-08 4.57603e-08 -0.000105051 -0.00166192 0.00436933 5.5082e-15 
0.000414424 -9.51538e-11 -1.36802e-09 4.15257e-09 -9.01732e-06 -0.000129641 0.000393521 -2.27784e-16 
0 0 0 0 0 0 0 0 
0 0 0 0 0 0 0 0 
0 0 0 0 0 0 0 0 
0.00263957 -7.76917e-10 -6.54354e-09 3.29394e-08 -6.1048e-05 -0.000514173 0.00258829 -2.64422e-15 
0.00015965 -1.46755e-11 -6.54851e-10 3.89576e-09 -5.9308e-07 -2.64645e-05 0.00015744 2.42848e-17 
0 0 0 0 0 0 0 0 
0 0 0 0 0 0 0 0 
0.00188096 -9.10567e-09 9.08872e-09 2.91789e-08 -1.33258e-05 0.000370499 0.00184406 1.04786 
0 0 0 0 0 0 0 0 
0.000335688 -9.88044e-11 8.32178e-10 4.18908e-09 -7.76378e-06 6.53902e-05 0.000329166 0 
0.000168767 -7.21789e-11 8.71661e-10 1.49344e-09 -7.0384e-06 8.49984e-05 0.00014563 -1.83116e-18 
0 0 0 0 0 0 0 0 
0 0 0 0 0 0 0 0 
0 0 0 0 0 0 0 0 
0.000266265 -1.89517e-09 7.50291e-11 4.51382e-09 -3.71991e-06 6.76343e-05 0.000257505 -0.00197058 
0.000999346 -3.27285e-10 3.90806e-09 9.79555e-09 -3.09978e-05 0.000370139 0.000927754 2.84568e-17 
0 0 0 0 0 0 0 0 
0.00166375 -7.43416e-10 9.14629e-09 1.43367e-08 -7.26627e-05 0.000893973 0.00140129 0 
0.000429684 3.88939e-09 1.64401e-10 3.8149e-09 -1.96416e-05 0.000157271 0.000399385 0.195538 
0.00134384 -1.20929e-09 3.8861e-09 9.85744e-09 -7.75035e-05 0.000521882 0.00123594 -0.0119305 
0.000297159 -3.18146e-11 1.38758e-09 8.64042e-09 -1.08031e-06 4.71172e-05 0.000293398 1.63239e-16 
0.000356355 -8.63629e-11 8.13544e-10 3.36982e-09 -8.875e-06 8.3603e-05 0.000346296 0 
0.00154839 -3.94671e-10 2.76234e-09 5.32255e-09 -0.000101687 0.000711718 0.00137136 0 
0.000285839 6.95985e-10 3.06955e-09 -8.57811e-08 0 0 -0.000285839 0.00726561 
0 0 0 0 0 0 0 0 
0.000393101 -2.86263e-09 1.04622e-08 4.7895e-10 0 0.000390808 4.23921e-05 -0.0200931 
0.00103548 -1.45654e-08 1.9632e-08 1.93838e-08 0 0.000781135 0.000679737 0.840102 
0.00151139 0 3.40025e-08 3.62546e-08 0 0.00103392 0.0011024 -2.96922e-16 
0.000677628 0 2.17983e-08 4.6323e-09 0 0.000662826 0.000140856 0 
0.00155983 0 8.10795e-09 -5.06532e-08 0 0.00024654 -0.00154022 4.38531e-16 
0.000874389 0 1.99513e-08 -2.07087e-08 0 0.000606664 -0.000629695 3.42603e-18 
0.000281837 0 9.09134e-09 -1.80485e-09 0 0.000276443 -5.48804e-05 0 
0.0012179 -1.02172e-08 2.36971e-08 -2.43694e-08 0 0.00054368 -0.00108982 1.65543 
0.000337497 0 7.87572e-09 -4.30253e-09 0 0.000296182 -0.000161805 0 
0.000261281 -6.88699e-10 8.21467e-10 -4.26449e-09 0 -1.67068e-05 -0.000260746 0.0624644 
0 0 0 0 0 0 0 0 
0 0 0 0 0 0 0 0 
0.000366803 0 -7.96782e-09 -5.62549e-09 0 -0.000299646 -0.000211558 -5.64964e-18 
0.000579319 0 -1.30333e-08 -1.38965e-08 0 -0.000396305 -0.000422554 -2.74082e-17 
0.000594154 -1.41921e-10 -1.90604e-08 -4.3097e-09 0 -0.000581176 -0.000123504 0.00299878 
0.000948626 0 -4.93093e-09 3.08052e-08 0 -0.000149936 0.000936702 3.28898e-16 
0.00169052 0 -3.85732e-08 4.00376e-08 0 -0.00117291 0.00121743 -2.83218e-16 
0.000698449 -2.41205e-09 -2.299e-08 2.15633e-09 0 -0.00068508 0.000136004 -0.00312854 
0.000422776 -1.68115e-08 -7.90276e-10 1.17196e-08 0 -0.000149489 0.000395466 1.07791 
0.000402916 0 -8.83441e-09 6.06137e-09 0 -0.000332236 0.00022795 -1.12993e-17 
0 0 0 0 0 0 0 0 
0 0 0 0 0 0 0 0 
0.00230584 -2.62438e-08 2.43339e-08 -3.84628e-08 -0.00115181 0.00106799 -0.00168809 0 
0.000897774 -3.14291e-08 4.90364e-09 3.33717e-09 -0.000448455 0.000760757 0.000161666 2.41518 
3.6103e-05 -4.10904e-10 1.03182e-10 7.05112e-10 -1.80341e-05 4.52854e-06 3.09466e-05 8.2417e-19 
0.00134061 -1.30356e-08 -2.31979e-08 1.5404e-08 -0.000669658 -0.0010192 0.000556792 0.0223438 
0.000388454 -3.5192e-09 -5.8003e-09 -5.80705e-09 -0.00019404 -0.00025386 -0.000220907 0.0301001 
0 0 0 0 0 0 0 0 
0 0 0 0 0 0 0 0 
0 0 0 0 0 0 0 0 
0 0 0 0 0 0 0 0 
0 0 0 0 0 0 0 0 
0 0 0 0 0 0 0 0 
0 0 0 0 0 0 0 0 
0 0 0 0 0 0 0 0 
0 0 0 0 0 0 0 0 
0 0 0 0 0 0 0 0 
0 0 0 0 0 0 0 0 
0 0 0 0 0 0 0 0 
0 0 0 0 0 0 0 0 
0 0 0 0 0 0 0 0 
0 0 0 0 0 0 0 0 
0 0 0 0 0 0 0 0 
0 0 0 0 0 0 0 0 
0 0 0 0 0 0 0 0 
0 0 0 0 0 0 0 0 
0.038509 6.18979e-09 3.82853e-08 1.67346e-08 0.00564319 0.0349045 0.0152568 -8.7656e-15 
0 0 0 0 0 0 0 0 
0 0 0 0 0 0 0 0 
0 0 0 0 0 0 0 0 
0 0 0 0 0 0 0 0 
0.000805723 1.29509e-10 8.55128e-10 1.81721e-10 0.000118073 0.000779615 0.000165674 6.84813e-17 
0 0 0 0 0 0 0 0 
0 0 0 0 0 0 0 0 
0 0 0 0 0 0 0 0 
0 0 0 0 0 0 0 0 
0 0 0 0 0 0 0 0 
0 0 0 0 0 0 0 0 
0 0 0 0 0 0 0 0 
0 0 0 0 0 0 0 0 
0 0 0 0 0 0 0 0 
0 0 0 0 0 0 0 0 
0 0 0 0 0 0 0 0 
0 0 0 0 0 0 0 0 
0 0 0 0 0 0 0 0 
0 0 0 0 0 0 0 0 
0 0 0 0 0 0 0 0 
0 0 0 0 0 0 0 0 
0 0 0 0 0 0 0 0 
0 0 0 0 0 0 0 0 
0 0 0 0 0 0 0 0 
0 0 0 0 0 0 0 0 
0 0 0 0 0 0 0 0 
0 0 0 0 0 0 0 0 
0 0 0 0 0 0 0 0 
0 0 0 0 0 0 0 0 
0 0 0 0 0 0 0 0 
0 0 0 0 0 0 0 0 
0 0 0 0 0 0 0 0 
0 0 0 0 0 0 0 0 
0 0 0 0 0 0 0 0 
0 0 0 0 0 0 0 0 
0 0 0 0 0 0 0 0 
0 0 0 0 0 0 0 0 
0 0 0 0 0 0 0 0 
0 0 0 0 0 0 0 0 
0 0 0 0 0 0 0 0 
0 0 0 0 0 0 0 0 
0 0 0 0 0 0 0 0 
0 0 0 0 0 0 0 0 
0 0 0 0 0 0 0 0 
0 0 0 0 0 0 0 0 
0 0 0 0 0 0 0 0 
0 0 0 0 0 0 0 0 
0 0 0 0 0 0 0 0 
0 0 0 0 0 0 0 0 
0 0 0 0 0 0 0 0 
0 0 0 0 0 0 0 0 
0.00186556 7.29645e-10 -1.98711e-09 -1.41702e-09 0.000796797 -0.000244244 -0.00166906 -0.226948 
0 0 0 0 0 0 0 0 
0 0 0 0 0 0 0 0 
0 0 0 0 0 0 0 0 
0 0 0 0 0 0 0 0 
0 0 0 0 0 0 0 0 
0 0 0 0 0 0 0 0 
0 0 0 0 0 0 0 0 
0 0 0 0 0 0 0 0 
0 0 0 0 0 0 0 0 
0 0 0 0 0 0 0 0 
0 0 0 0 0 0 0 0 
0 0 0 0 0 0 0 0 
0 0 0 0 0 0 0 0 
0 0 0 0 0 0 0 0 
0 0 0 0 0 0 0 0 
0 0 0 0 0 0 0 0 
0 0 0 0 0 0 0 0 
0 0 0 0 0 0 0 0 
0 0 0 0 0 0 0 0 
0 0 0 0 0 0 0 0 
0 0 0 0 0 0 0 0 
0 0 0 0 0 0 0 0 
0 0 0 0 0 0 0 0 
0 0 0 0 0 0 0 0 
0 0 0 0 0 0 0 0 
0 0 0 0 0 0 0 0 
0 0 0 0 0 0 0 0 
0 0 0 0 0 0 0 0 
0 0 0 0 0 0 0 0 
0 0 0 0 0 0 0 0 
0 0 0 0 0 0 0 0 
0 0 0 0 0 0 0 0 
0 0 0 0 0 0 0 0 
0 0 0 0 0 0 0 0 
0 0 0 0 0 0 0 0 
0 0 0 0 0 0 0 0 
0 0 0 0 0 0 0 0 
0 0 0 0 0 0 0 0 
0 0 0 0 0 0 0 0 
0 0 0 0 0 0 0 0 
0 0 0 0 0 0 0 0 
0 0 0 0 0 0 0 0 
0 0 0 0 0 0 0 0 
0 0 0 0 0 0 0 0 
0 0 0 0 0 0 0 0 
0 0 0 0 0 0 0 0 
0 0 0 0 0 0 0 0 
0 0 0 0 0 0 0 0 
0 0 0 0 0 0 0 0 
0 0 0 0 0 0 0 0 
0 0 0 0 0 0 0 0 
0 0 0 0 0 0 0 0 
0 0 0 0 0 0 0 0 
0 0 0 0 0 0 0 0 
0 0 0 0 0 0 0 0 
0 0 0 0 0 0 0 0 
0 0 0 0 0 0 0 0 
0 0 0 0 0 0 0 0 
0 0 0 0 0 0 0 0 
0 0 0 0 0 0 0 0 
0 0 0 0 0 0 0 0 
0 0 0 0 0 0 0 0 
0 0 0 0 0 0 0 0 
0 0 0 0 0 0 0 0 
0 0 0 0 0 0 0 0 
0 0 0 0 0 0 0 0 
0 0 0 0 0 0 0 0 
0 0 0 0 0 0 0 0 
0 0 0 0 0 0 0 0 
0 0 0 0 0 0 0 0 
0 0 0 0 0 0 0 0 
0 0 0 0 0 0 0 0 
0 0 0 0 0 0 0 0 
0 0 0 0 0 0 0 0 
0 0 0 0 0 0 0 0 
0 0 0 0 0 0 0 0 
0 0 0 0 0 0 0 0 
0 0 0 0 0 0 0 0 
0 0 0 0 0 0 0 0 
0 0 0 0 0 0 0 0 
0 0 0 0 0 0 0 0 
0 0 0 0 0 0 0 0 
0 0 0 0 0 0 0 0 
0 0 0 0 0 0 0 0 
0 0 0 0 0 0 0 0 
0 0 0 0 0 0 0 0 
0 0 0 0 0 0 0 0 
0 0 0 0 0 0 0 0 
0.000731029 -1.03611e-08 -2.67374e-09 2.19384e-07 0 0 0.000731029 0.0457041 
0.00382587 -2.8706e-08 0 0 -0.00382587 0 0 0 
0 0 0 0 0 0 0 0 
0 0 0 0 0 0 0 0 
0 0 0 0 0 0 0 0 
0 0 0 0 0 0 0 0 
0 0 0 0 0 0 0 0 
0 0 0 0 0 0 0 0 
0 0 0 0 0 0 0 0 
0 0 0 0 0 0 0 0 
0 0 0 0 0 0 0 0 
0 0 0 0 0 0 0 0 
0.0196253 -4.78368e-08 2.75295e-11 6.35098e-10 -0.0196253 0 0 19.5679 
0 0 0 0 0 0 0 0 
0 0 0 0 0 0 0 0 
0 0 0 0 0 0 0 0 
0.0295438 -7.0167e-08 0 0 -0.0295438 0 0 0 
0 0 0 0 0 0 0 0 
0 0 0 0 0 0 0 0 
0.00430104 -1.0215e-08 6.93759e-10 -4.6222e-10 -0.00430104 0 0 5.97045 
0 0 0 0 0 0 0 0 
0 0 0 0 0 0 0 0 
0 0 0 0 0 0 0 0 
0 0 0 0 0 0 0 0 
0.023665 -5.62045e-08 0 0 -0.023665 0 0 0 
0 0 0 0 0 0 0 0 
0 0 0 0 0 0 0 0 
0.0133852 -3.17898e-08 0 0 -0.0133852 0 0 0 
0.0195772 -4.64958e-08 0 0 -0.0195772 0 0 0 
0.00532471 -2.52924e-07 0 0 -0.00532471 0 0 0 
0.00122757 -5.98442e-08 -4.34245e-09 1.8169e-09 -0.00122757 0 0 0.855406 
0.00652737 -1.63184e-08 0 0 -0.00652737 0 0 0 
0 0 0 0 0 0 0 0 
0.0122264 -3.05659e-08 0 0 -0.0122264 0 0 0 
0.00411022 -1.95236e-07 2.67636e-09 -1.92131e-09 -0.00411022 0 0 0.699198 
0 0 0 0 0 0 0 0 
0 0 0 0 0 0 0 0 
0 0 0 0 0 0 0 0 
0 0 0 0 0 0 0 0 
0 0 0 0 0 0 0 0 
0 0 0 0 0 0 0 0 
0 0 0 0 0 0 0 0 
0 0 0 0 0 0 0 0 
0 0 0 0 0 0 0 0 
0 0 0 0 0 0 0 0 
0 0 0 0 0 0 0 0 
0 0 0 0 0 0 0 0 
0 0 0 0 0 0 0 0 
0 0 0 0 0 0 0 0 
0 0 0 0 0 0 0 0 
0 0 0 0 0 0 0 0 
0 0 0 0 0 0 0 0 
0.000848048 2.01412e-09 -1.10521e-09 -7.92483e-11 0.000848048 0 0 -0.106061 
0 0 0 0 0 0 0 0 
0 0 0 0 0 0 0 0 
0 0 0 0 0 0 0 0 
0 0 0 0 0 0 0 0 
0 0 0 0 0 0 0 0 
0 0 0 0 0 0 0 0 
0 0 0 0 0 0 0 0 
0 0 0 0 0 0 0 0 
0 0 0 0 0 0 0 0 
0.00017175 2.9356e-09 -1.00473e-07 -1.96346e-08 0 -0.00017175 0 -0.00144872 
1.48992e-05 -1.55934e-07 1.35629e-07 1.36183e-07 -2.17507e-13 1.05354e-05 1.05354e-05 0.0213978 