ITEM: TIMESTEP
255
ITEM: NUMBER OF SURFS
6916
ITEM: BOX BOUNDS oo rr rr
-0.35 0.35
-0.25 0.25
-0.25 0.25
ITEM: SURFS f_save[1] f_save[2] f_save[3] f_save[4] f_save[5] f_save[6] f_save[7] f_save[8] 
0.00562068 -4.21727e-08 3.03199e-09 -4.22576e-10 -0.00562068 0 0 4.38389 
0 0 0 0 0 0 0 0 
0 0 0 0 0 0 0 0 
0 0 0 0 0 0 0 0 
0 0 0 0 0 0 0 0 
0.00827216 -2.01634e-08 0 0 -0.00827216 0 0 0 
0 0 0 0 0 0 0 0 
0.00910471 -2.16237e-08 0 0 -0.00910471 0 0 0 
0.00648768 -1.54083e-08 0 0 -0.00648768 0 0 0 
0 0 0 0 0 0 0 0 
0 0 0 0 0 0 0 0 
0.00900766 -2.19562e-08 0 0 -0.00900766 0 0 0 
0.0194667 -4.74502e-08 0 0 -0.0194667 0 0 0 
0.00601537 -1.42865e-08 0 0 -0.00601537 0 0 0 
0.00923959 -2.19442e-08 0 0 -0.00923959 0 0 0 
0 0 0 0 0 0 0 0 
0 0 0 0 0 0 0 0 
0.0086302 -2.04967e-08 0 0 -0.0086302 0 0 0 
0 0 0 0 0 0 0 0 
0 0 0 0 0 0 0 0 
0.00676785 -1.60737e-08 0 0 -0.00676785 0 0 0 
0 0 0 0 0 0 0 0 
0 0 0 0 0 0 0 0 
0.00330923 -7.85943e-09 0 0 -0.00330923 0 0 0 
0 0 0 0 0 0 0 0 
0 0 0 0 0 0 0 0 
0 0 0 0 0 0 0 0 
0.00421938 -1.0021e-08 0 0 -0.00421938 0 0 0 
0 0 0 0 0 0 0 0 
0.0054489 -1.36223e-08 0 0 -0.0054489 0 0 5.20318e-15 
0.00452422 -2.14901e-07 -1.059e-09 -2.87241e-09 -0.00452422 0 0 0.577742 
0.0040422 -3.4763e-07 2.73723e-09 -3.113e-09 -0.0040422 0 0 0.675611 
0.00204102 -9.69486e-08 0 0 -0.00204102 0 0 0 
0.00874196 -2.18549e-08 0 0 -0.00874196 0 0 0 
0 0 0 0 0 0 0 0 
0.000531668 1.26271e-09 0 0 0.000531668 0 0 0 
0.000544389 1.29293e-09 0 0 0.000544389 0 0 0 
0.00157753 1.92261e-09 0 0 0.00157753 0 0 0 
0 0 0 0 0 0 0 0 
0 0 0 0 0 0 0 0 
0 0 0 0 0 0 0 0 
0 0 0 0 0 0 0 0 
0 0 0 0 0 0 0 0 
0 0 0 0 0 0 0 0 
0.000408115 9.69275e-10 0 0 0.000408115 0 0 0 
0 0 0 0 0 0 0 0 
0 0 0 0 0 0 0 0 
0.000509353 1.20971e-09 0 0 0.000509353 0 0 0 
0 0 0 0 0 0 0 0 
0 0 0 0 0 0 0 0 
0.000923123 2.25012e-09 0 0 0.000923123 0 0 0 
0 0 0 0 0 0 0 0 
0 0 0 0 0 0 0 0 
0 0 0 0 0 0 0 0 
0 0 0 0 0 0 0 0 
0.000931545 2.27065e-09 0 0 0.000931545 0 0 0 
0.000928733 2.26379e-09 0 0 0.000928733 0 0 0 
0.000548852 1.33782e-09 -7.97828e-10 1.52253e-09 0.000548852 0 0 -0.109429 
0 0 0 0 0 0 0 0 
0 0 0 0 0 0 0 0 
0.000325654 7.93784e-10 0 0 0.000325654 0 0 0 
0 0 0 0 0 0 0 0 
1.2129e-05 -2.86529e-07 2.43217e-07 2.48218e-07 0 8.57652e-06 8.57652e-06 0.0177779 
1.22902e-05 -1.63228e-07 -1.08237e-07 -1.15978e-07 0 -8.6905e-06 -8.6905e-06 0.0217072 
0.000267799 -8.53945e-09 1.52645e-07 9.20394e-10 0 0.000267799 0 0.0221573 
0.00021562 -1.14682e-08 -1.22904e-07 -6.28235e-09 0 -0.00021562 0 0.0475996 
0.000205084 4.97577e-09 1.16898e-07 -6.74446e-10 0 0.000205084 0 0.00195889 
0.000293406 -9.43464e-09 -1.67241e-07 -2.56013e-09 0 -0.000293406 0 0.0300278 
0.000277268 3.39351e-09 1.58043e-07 4.85685e-09 0 0.000277268 0 -0.00242769 
0.000272585 -1.86912e-09 -4.57065e-09 1.55373e-07 0 0 0.000272585 0.00144699 
0.000246113 -4.41797e-09 1.88691e-09 1.43976e-07 0 0 0.000246113 0.0356952 
0.000252406 7.11409e-09 2.5459e-09 -1.47658e-07 0 0 -0.000252406 -0.00137731 
0.000271912 8.86586e-09 5.55166e-09 1.59068e-07 0 0 0.000271912 -0.00293985 
0.0001642 -4.99776e-09 9.35937e-08 1.42456e-09 0 0.0001642 0 0.02329 
7.82188e-05 -1.07413e-08 4.5758e-08 -3.14366e-09 0 7.82188e-05 0 0.0353064 
0.00015551 -1.74278e-08 -3.41444e-09 -8.8641e-08 0 0 -0.00015551 0.066765 
0.000172525 1.10686e-09 9.83391e-08 -1.81718e-10 0 0.000172525 0 0.00147747 
0.000177372 -1.57129e-08 -1.01102e-07 1.19456e-09 0 -0.000177372 0 0.0578031 
0.000252451 -2.25258e-08 -4.40755e-09 1.43897e-07 0 0 0.000252451 0.0763365 
0.000240445 3.11154e-09 -6.64978e-09 1.37054e-07 0 0 0.000240445 0.00364772 
0.000161613 -1.29336e-08 2.09117e-09 -9.21196e-08 0 0 -0.000161613 0.037518 
0.000189713 -1.66877e-09 -1.08137e-07 -7.7432e-09 0 -0.000189713 0 0.012816 
0.000205806 -1.00726e-08 1.17309e-07 -2.41914e-09 0 0.000205806 0 0.0409619 
0.000182851 4.00571e-09 1.39505e-09 -1.04225e-07 0 0 -0.000182851 -0.00274694 
0.000171871 -6.86272e-09 1.00545e-07 -3.42611e-09 0 0.000171871 0 0.0140453 
0.000158008 2.89252e-09 -1.50073e-09 9.24347e-08 0 0 0.000158008 -0.000737784 
0.000214283 2.42573e-09 -1.25356e-07 -1.31211e-09 0 -0.000214283 0 0.000978828 
0.000106295 3.11223e-09 -1.86611e-09 -6.0588e-08 0 0 -0.000106295 0.000308245 
0.000181727 -3.20339e-10 -1.06311e-07 7.8546e-10 0 -0.000181727 0 0.000243546 
0.000220716 -1.21043e-08 5.604e-09 1.29119e-07 0 0 0.000220716 0.0371677 
0.000155384 -5.7523e-09 2.23369e-09 -8.85687e-08 0 0 -0.000155384 0.031617 
0.00013193 -3.0986e-09 -7.71789e-08 -5.79406e-09 0 -0.00013193 0 0.022356 
0.000219007 1.15977e-09 -1.24834e-07 -8.10564e-09 0 -0.000219007 0 0.0013273 
0.000176767 -6.75845e-10 -1.23377e-10 5.17043e-08 0 0 0.000176767 -0.000250192 
0.000108072 -6.15564e-09 -8.79466e-11 6.16008e-08 0 0 0.000108072 0.0239751 
0.000191514 -1.78497e-08 2.15328e-09 -1.09163e-07 0 0 -0.000191514 0.0632582 
9.52094e-05 -1.09987e-08 -4.08438e-10 5.42693e-08 0 0 9.52094e-05 0.038465 
0.000115575 -1.13534e-08 -6.58775e-08 2.54039e-09 0 -0.000115575 0 0.0396163 
0.00016705 -7.98162e-09 -4.14746e-10 -9.52188e-08 0 3.27542e-11 -0.00016705 0.031161 
0.000176717 1.54703e-09 -1.00729e-07 5.84779e-09 0 -0.000176717 0 -0.000429039 
8.92339e-05 -1.91619e-08 -5.08633e-08 1.3828e-09 0 -8.92339e-05 0 0.057948 
6.97412e-05 5.21665e-11 -1.51489e-09 3.97525e-08 0 0 6.97412e-05 -0.000470472 
0.000233799 -1.73385e-09 1.33265e-07 2.4565e-09 0 0.000233799 0 0.0146326 
7.67524e-05 2.54124e-09 1.80017e-09 -4.37488e-08 0 0 -7.67524e-05 -0.00437773 
0.000192843 -7.54119e-09 -1.0992e-07 4.16585e-10 0 -0.000192843 0 0.0227487 
0.000199756 -1.1245e-08 4.41332e-09 -1.13861e-07 0 0 -0.000199756 0.0376169 
0.0002573 -4.79207e-11 1.83326e-08 5.48352e-10 -4.89481e-07 0.000257299 0 -0.0179685 
0.000492488 -7.05222e-11 8.96289e-09 -9.62821e-11 -3.34022e-05 0.000490845 -2.23461e-05 -0.0277821 
0.000136176 -2.40726e-11 2.19518e-09 -7.61705e-11 -1.49234e-06 0.000136086 -4.72205e-06 0 
0.000415393 -2.32223e-10 7.4706e-09 -3.92931e-10 -1.28884e-05 0.000414619 -2.18077e-05 -1.50406e-17 
0.000170552 -4.94471e-11 2.81146e-09 -3.18003e-11 -2.99896e-06 0.000170514 -1.92868e-06 0 
0 0 0 0 0 0 0 0 
0.000395276 -2.27341e-10 9.52993e-09 -4.63967e-10 -2.09142e-07 0.000395241 5.26476e-06 -0.00216802 
0.000672828 -3.76917e-10 1.24364e-08 -3.22101e-10 -2.57483e-05 0.000672204 1.33045e-05 -0.0207795 
0.000306975 -5.97524e-11 4.94848e-09 1.71707e-10 -3.70419e-06 0.000306768 1.06445e-05 -1.47e-17 
0.000290237 -1.11668e-10 2.06793e-08 1.13961e-09 -1.38252e-07 0.000290237 0 -0.0232091 
0.000106458 -1.44298e-11 0 7.58515e-09 -2.02524e-07 0 0.000106458 -4.51667e-18 
0.000202466 -1.79002e-09 1.28e-09 3.5084e-09 -1.37319e-05 9.18664e-06 0.00020179 0.0046689 
0.000163515 -8.69796e-11 1.22948e-09 2.59576e-09 -1.79194e-06 5.67005e-06 0.000163407 0.0199068 
2.34257e-05 2.17104e-10 1.58926e-10 4.21261e-10 -7.26833e-07 1.22983e-06 2.33821e-05 -0.00102098 
0.000377866 -2.89122e-10 -8.07148e-10 6.2357e-09 -6.64435e-06 4.27309e-06 0.000377784 0.0107207 
0 0 0 0 0 0 0 0 
0.000186594 -2.37855e-12 -5.98756e-11 4.49504e-09 -9.87274e-08 -2.48528e-06 0.000186577 3.7788e-18 
0.000224895 -5.13321e-12 1.86002e-10 4.16309e-09 -8.60647e-06 -4.44707e-06 0.000224686 0.0127299 
6.28364e-05 -1.2231e-11 -3.51477e-11 1.01293e-09 -7.58231e-07 -2.17889e-06 6.2794e-05 -6.29999e-18 
0.000149206 1.8449e-09 -8.63587e-10 1.06318e-08 -7.10729e-08 0 0.000149206 0.00221434 
0.000190573 1.45813e-09 -1.35811e-08 1.19344e-09 -3.62541e-07 -0.000190572 0 -0.00710065 
0.000156453 -1.92668e-10 -2.83126e-09 1.28895e-10 -1.06112e-05 -0.000155931 7.09888e-06 5.597e-18 
0.000347037 3.07137e-10 -5.59007e-09 4.32134e-10 -3.80314e-06 -0.000346808 1.20339e-05 0.00887197 
0.000224114 -1.56234e-10 -4.02259e-09 3.45254e-10 -6.9536e-06 -0.000223697 1.17658e-05 0.00685004 
0.000236616 -6.86008e-11 -3.9005e-09 4.41184e-11 -4.16063e-06 -0.000236565 2.67577e-06 -4.10903e-18 
0 0 0 0 0 0 0 0 
0.000355596 -4.53286e-12 -8.5663e-09 -1.14106e-10 -1.88147e-07 -0.000355565 -4.73626e-06 1.61698e-17 
8.95708e-05 -6.33403e-11 -1.65361e-09 -3.27287e-11 -3.42777e-06 -8.94877e-05 -1.77117e-06 -3.66641e-18 
0 0 0 0 0 0 0 0 
0.000268722 -2.90517e-10 -1.91463e-08 1.55566e-09 -1.28003e-07 -0.000268722 0 0.00248818 
0.000366545 -7.03279e-09 1.94568e-10 -2.61031e-08 -6.97308e-07 0 -0.000366545 0.174426 
0.000362102 -4.4592e-10 -2.9832e-10 -6.55279e-09 -2.4559e-05 -1.64299e-05 -0.000360894 1.72574e-17 
0.000196554 -1.29082e-08 -1.03951e-09 -2.99505e-09 -2.15401e-06 -6.81571e-06 -0.000196424 1.17156 
4.43608e-05 -2.03554e-10 3.54292e-10 -8.13089e-10 -1.37639e-06 -2.3289e-06 -4.42783e-05 -0.000615401 
0.000330882 -9.69502e-10 -7.45264e-10 -5.43133e-09 -5.81818e-06 -3.74177e-06 -0.00033081 -0.0375793 
0 0 0 0 0 0 0 0 
0.000157279 -1.16835e-08 1.12501e-09 -3.76835e-09 -8.32169e-08 2.09483e-06 -0.000157265 0.966589 
0.000457405 -3.23456e-10 1.67134e-10 -8.44436e-09 -1.75043e-05 9.04471e-06 -0.00045698 -2.38317e-17 
0.000139893 -2.72301e-11 7.82497e-11 -2.2551e-09 -1.68806e-06 4.85089e-06 -0.000139799 -2.1e-18 
0.000137341 -3.53297e-10 3.80172e-10 -9.78539e-09 -6.54211e-08 0 -0.000137341 -0.0025421 
0 0 0 0 0 0 0 0 
0 0 0 0 0 0 0 0 
0 0 0 0 0 0 0 0 
0 0 0 0 0 0 0 0 
0 0 0 0 0 0 0 0 
0 0 0 0 0 0 0 0 
0 0 0 0 0 0 0 0 
0 0 0 0 0 0 0 0 
0 0 0 0 0 0 0 0 
0 0 0 0 0 0 0 0 
0 0 0 0 0 0 0 0 
0 0 0 0 0 0 0 0 
0 0 0 0 0 0 0 0 
0 0 0 0 0 0 0 0 
0 0 0 0 0 0 0 0 
0 0 0 0 0 0 0 0 
0.000285562 -1.16854e-09 6.59452e-09 -1.77089e-10 -4.98074e-05 0.000281083 -7.5482e-06 2.31021e-17 
4.99736e-05 -1.50105e-10 5.93426e-10 -1.19774e-10 -1.20266e-05 4.75461e-05 -9.59642e-06 0 
0.000572896 -9.38216e-10 4.2311e-09 -3.43257e-10 -0.000123636 0.000557564 -4.52336e-05 0 
0.000647789 -2.08213e-09 1.10685e-08 -9.18386e-10 -0.00011936 0.000634517 -5.26476e-05 -2.64102e-16 
0.000723661 -2.04498e-09 1.36627e-08 -1.96664e-09 -0.000141077 0.000705077 -8.15441e-05 -0.00129039 
0.000579622 -8.84873e-10 3.98096e-09 -6.22527e-10 -0.000137003 0.000559439 -6.49561e-05 0.0411245 
0.000101817 -2.77634e-10 1.25297e-09 -1.88695e-10 -2.17921e-05 9.83487e-05 -1.48111e-05 -7.97679e-18 
0.000158761 -4.78251e-10 2.06685e-09 -2.84629e-10 -3.54724e-05 0.000153301 -2.11113e-05 0 
0.000580375 -1.22805e-09 6.57627e-09 -1.50778e-09 -0.000135214 0.000551205 -0.000121352 0.0214224 
0.000461673 -1.36004e-09 5.10801e-09 -8.17191e-10 -8.86038e-05 0.000452565 -2.18246e-05 0.0372387 
0.000116896 -3.32406e-10 1.31148e-09 -3.05597e-10 -2.80143e-05 0.000110528 -2.57549e-05 -1.42745e-17 
0.000102783 -3.44666e-10 1.93092e-09 7.3074e-11 -1.80485e-05 0.000101113 3.82654e-06 -1.77388e-18 
0.000345817 -1.18059e-08 2.52278e-09 3.48802e-10 -7.24997e-05 0.00033652 3.29756e-05 1.28812 
0.000343425 -9.7612e-10 7.94466e-09 1.17053e-09 -6.05147e-05 0.000337812 1.26932e-05 0.0251529 
0.00131828 -3.08481e-09 1.17422e-08 2.36999e-09 -0.000328754 0.00125139 0.000252574 -2.31048e-16 
0.000844568 -1.35676e-09 5.49537e-09 8.32068e-10 -0.000200286 0.00081123 0.00012283 -3.20042e-16 
0.000275714 -2.05982e-09 2.53825e-09 3.63888e-09 -6.27049e-05 0.000264785 4.44482e-05 -0.0411521 
0.000667291 -1.87099e-09 8.76167e-09 1.08448e-09 -0.000138343 0.000647849 8.01878e-05 -9.64335e-17 
0.000587715 -1.23352e-09 6.06635e-09 5.18273e-10 -0.0001167 0.000573921 4.90324e-05 -1.28193e-17 
0.000143781 -3.0258e-10 2.79338e-09 -1.09543e-09 -2.58114e-05 0.000141271 7.02179e-06 0.0255116 
0.000672526 -2.22011e-09 1.18444e-08 -8.33847e-10 -0.000131589 0.000652473 9.62021e-05 0.0262578 
4.13012e-05 -9.93908e-11 4.64632e-10 7.83732e-11 -8.5242e-06 3.9849e-05 6.72165e-06 0 
0.000384493 -2.40433e-09 7.87414e-10 4.22149e-09 -6.92556e-05 3.51747e-05 0.000376565 -0.031802 
0.000353949 -5.98692e-10 2.9618e-10 2.4331e-09 -8.39859e-05 4.15488e-05 0.000341321 0 
0.000465226 1.83785e-09 -1.11293e-09 8.72491e-09 -8.47772e-05 3.05741e-05 0.000456413 0.0148743 
0.000178447 -6.50071e-10 2.43293e-10 3.32362e-09 -3.41656e-05 1.27867e-05 0.000174679 -1.78036e-18 
0.000684939 -1.55551e-09 4.34817e-10 7.66945e-09 -0.000135937 3.79989e-05 0.000670238 -2.36829e-17 
0.000805963 -1.57674e-09 3.78278e-10 1.17389e-08 -0.000167275 6.32936e-05 0.000785868 0.0268306 
0.000578169 -1.15562e-08 9.93357e-10 3.85491e-09 -0.000127212 0.000127642 0.000549366 1.49394 
0.000110914 -1.82226e-10 1.00268e-10 7.48865e-10 -2.60051e-05 1.4309e-05 0.000106869 -9.66849e-18 
0.000251138 -9.77531e-10 8.10095e-10 4.67251e-09 -4.49505e-05 9.34392e-06 0.000246906 -0.00329552 
0.00123312 -1.48409e-09 2.78004e-09 1.21385e-08 -0.00029238 0.000337877 0.00114932 -0.0446771 
0.000318313 -6.23215e-10 2.90798e-10 2.41714e-09 -6.88411e-05 7.29722e-05 0.000302091 -0.0569383 
0.000264857 -8.54721e-10 -4.62049e-11 5.49083e-09 -4.97159e-05 -1.58185e-05 0.000259668 -0.0164591 
0.000542691 -9.17942e-10 -4.54117e-10 3.73054e-09 -0.000128771 -6.37045e-05 0.000523329 1.53254e-16 
0.000515132 -9.42832e-10 -1.1304e-09 3.68113e-09 -0.000122507 -0.000146878 0.000478309 4.40157e-18 
0.000228283 -3.51283e-10 -1.23548e-10 1.52289e-09 -5.11508e-05 -1.79899e-05 0.00022175 4.93259e-18 
0.000388502 -1.0181e-09 -1.03754e-09 4.03485e-09 -9.22269e-05 -9.39877e-05 0.000365506 -4.90984e-17 
0.000261037 -6.07213e-10 -5.80526e-10 2.7961e-09 -5.42906e-05 -5.19046e-05 0.000249998 -3.02875e-18 
0.000288473 -6.21906e-10 -2.59618e-10 3.05956e-09 -5.7264e-05 -2.39052e-05 0.000281719 0 
0.000158758 -1.41166e-09 4.39599e-10 2.59415e-09 -3.07381e-05 -1.53303e-05 0.000154998 -0.00809211 
0.000462653 -9.47744e-09 -6.61104e-10 3.10225e-08 -8.03275e-05 -4.95565e-06 0.000455599 0.122081 
0.000214538 -8.43581e-10 -9.738e-10 5.05869e-09 -3.80483e-05 -1.52882e-05 0.000210583 0.0039218 
0.000550246 -2.33418e-09 -1.27477e-08 -1.72289e-09 -9.59735e-05 -0.000541616 1.45446e-05 -0.00593948 
0.000494112 -1.48416e-09 -5.86747e-09 1.18425e-09 -0.000118913 -0.00047011 9.48841e-05 -7.59953e-17 
0 0 0 0 0 0 0 0 
0.000188955 -6.0734e-10 -3.22861e-09 2.67886e-10 -3.48165e-05 -0.000185084 1.53569e-05 -1.35935e-17 
0.000340606 -4.72714e-10 -6.55825e-09 6.69391e-10 -6.64006e-05 -0.000331859 3.83804e-05 0.00128472 
0 0 0 0 0 0 0 0 
0.000193506 -5.27651e-10 -2.38131e-09 3.5862e-10 -4.14165e-05 -0.000186914 2.81489e-05 -1.59536e-17 
0.000102643 -3.092e-10 -1.33627e-09 1.84019e-10 -2.29337e-05 -9.91124e-05 1.36489e-05 7.53765e-18 
0.000462714 -7.09414e-09 -3.93048e-09 3.50408e-10 -0.000107801 -0.000439457 9.67499e-05 0.928573 
8.57067e-05 -1.89076e-10 -9.65753e-10 4.65727e-11 -1.64487e-05 -8.40158e-05 4.0516e-06 5.89393e-18 
0.000895723 -6.77054e-10 -1.08431e-08 9.69295e-10 -0.000214661 -0.000846932 0.000197349 -0.0413477 
0.000493781 -8.6961e-10 -9.41444e-09 -4.11786e-10 -8.67073e-05 -0.000485761 -1.83832e-05 -0.0067617 
0 0 0 0 0 0 0 0 
0.000265068 -3.68912e-10 -6.2005e-09 -9.13085e-10 -4.67075e-05 -0.000260736 -9.79707e-06 0.016008 
0.000649176 -1.5191e-09 -5.78239e-09 -1.16708e-09 -0.000161893 -0.000616239 -0.000124378 1.44405e-17 
0 0 0 0 0 0 0 0 
0.000333719 -9.6145e-10 -4.05992e-09 -6.81522e-10 -7.58967e-05 -0.00032049 -5.37993e-05 4.01114e-18 
0.000440493 -1.23508e-09 -5.78376e-09 -7.15889e-10 -9.13232e-05 -0.000427659 -5.29337e-05 -1.50286e-17 
0.000305203 -1.48649e-09 -3.05807e-09 6.6484e-10 -6.06031e-05 -0.00029804 -2.54625e-05 -0.0260527 
1.97772e-05 -6.77927e-11 -3.71044e-10 -1.84425e-11 -3.55038e-06 -1.9432e-05 -9.65852e-07 4.43519e-19 
0.000230096 -7.98808e-10 -3.63658e-09 -2.48121e-09 -4.50213e-05 -0.000223235 -3.29143e-05 0.00224467 
0.000464894 -1.11876e-09 -5.22999e-09 -8.82184e-10 -9.59501e-05 -0.000448548 -7.56602e-05 1.97559e-16 
0 0 0 0 0 0 0 0 
0 0 0 0 0 0 0 0 
0.000157993 -5.04466e-10 -1.81931e-10 -2.71589e-09 -2.87908e-05 -1.03831e-05 -0.000155 4.83327e-19 
0.000145211 -5.23677e-10 -1.12571e-09 -2.63771e-09 -2.78021e-05 -1.04051e-05 -0.000142144 0.00863908 
0.000556647 -1.39346e-08 -1.65133e-09 -3.58955e-09 -0.000110475 -3.08816e-05 -0.0005447 1.64035 
0.000569576 -2.52209e-09 -3.33299e-09 -7.74934e-09 -0.000118214 -4.47297e-05 -0.000555375 0.0169905 
0.000681887 -1.528e-09 -2.87368e-09 -6.95316e-09 -0.000150033 -0.00015054 -0.000647918 -0.00396371 
0 0 0 0 0 0 0 0 
0.00039076 -1.33647e-09 -2.77813e-10 -7.341e-09 -6.99409e-05 -1.45387e-05 -0.000384175 -2.65916e-17 
0 0 0 0 0 0 0 0 
0 0 0 0 0 0 0 0 
0.000215629 -8.47606e-10 2.6969e-10 -4.42707e-09 -4.04753e-05 1.28784e-05 -0.000211404 -6.47048e-18 
0.00113188 -1.91453e-09 9.4714e-10 -7.78069e-09 -0.000268574 0.000132867 -0.00109149 -9.12397e-16 
0.000255381 -4.67416e-10 5.60403e-10 -1.82495e-09 -6.07339e-05 7.28161e-05 -0.000237125 -1.10039e-17 
0 0 0 0 0 0 0 0 
6.56933e-05 -1.72154e-10 1.75441e-10 -6.82268e-10 -1.5595e-05 1.58927e-05 -6.18048e-05 -4.60297e-18 
0.00011443 -2.66182e-10 2.54484e-10 -1.22572e-09 -2.37992e-05 2.27533e-05 -0.000109591 -1.51438e-18 
0.000280882 -1.41245e-10 5.15176e-10 -3.05117e-09 -5.57573e-05 2.32762e-05 -0.000274307 -0.015905 
0.000970361 3.91415e-10 2.59606e-09 -1.71222e-08 -0.000187877 9.37017e-05 -0.000947376 -0.00078836 
0.00037923 -3.90987e-09 8.99431e-10 -2.61052e-08 -6.58434e-05 4.06208e-06 -0.000373449 0.00667777 
0.000806504 -4.43067e-09 -3.5596e-10 -1.9081e-08 -0.000143033 5.74724e-05 -0.000791636 -0.00978396 
0.000422531 -1.65151e-10 1.78717e-09 -2.77317e-11 -2.37737e-05 0.000397039 0.000142576 -0.0111174 
0.0018978 -4.2654e-10 8.34836e-09 2.5636e-09 -9.25815e-05 0.00181203 0.000556436 6.43359e-17 
0 0 0 0 0 0 0 0 
0.00018588 -6.08193e-11 1.78765e-09 7.52498e-10 -5.82578e-06 0.000171236 7.20805e-05 -3.24484e-18 
0.000274834 -9.52175e-12 7.66769e-09 5.96834e-10 -3.40259e-07 0.000274005 2.13278e-05 3.63157e-18 
0.000906576 -2.31075e-10 3.11634e-09 1.61734e-09 -5.95366e-05 0.000802926 0.000416708 1.04735e-16 
0.000336423 -7.04972e-10 1.87477e-09 2.32372e-09 -1.74291e-05 0.00030951 0.000130692 0.0145575 
0.0033362 -7.39434e-10 1.48303e-08 8.59223e-09 -0.000143796 0.00288402 0.00167091 -8.43214e-16 
0.000514943 -9.06254e-10 3.83962e-09 1.35352e-09 -2.63868e-05 0.000478503 0.000188427 0.0350136 
9.52629e-05 1.96863e-10 1.97356e-10 1.69297e-09 -3.81395e-06 8.92871e-05 3.29892e-05 0.0710527 
0.000192951 -5.34384e-11 1.88829e-09 7.1823e-10 -5.10197e-06 0.000180282 6.85721e-05 -8.08545e-19 
0.000196902 -2.79805e-11 1.5146e-09 4.48281e-10 -3.48742e-06 0.000188776 5.58726e-05 -2.95548e-17 
0 0 0 0 0 0 0 0 
0.00014391 -1.78752e-11 2.37294e-09 3.90726e-10 -1.06962e-06 0.000141994 2.33805e-05 2.98988e-17 
0.000423083 -4.64708e-09 1.02419e-08 2.142e-09 -1.53806e-06 0.000417732 6.70585e-05 0.361716 
0.000511561 -1.87911e-10 3.43687e-09 2.44772e-09 -2.27598e-05 0.000416273 0.000296468 -1.28217e-16 
0 0 0 0 0 0 0 0 
0.000215777 -4.06354e-11 1.06993e-09 4.12351e-10 -7.64205e-06 0.000201215 7.75482e-05 -3.18533e-18 
0.000116354 -2.61511e-11 5.11838e-10 -1.57175e-10 -5.67615e-06 0.000111095 -3.4115e-05 0 
0 0 0 0 0 0 0 0 
0.000309492 -8.25185e-11 3.33615e-09 -7.91172e-10 -7.44643e-06 0.000301053 -7.1395e-05 -6.11374e-18 
0.000639079 -1.74235e-09 6.86189e-09 -1.77971e-09 -1.2717e-05 0.000624828 -0.000133606 -0.000794603 
0 0 0 0 0 0 0 0 
0.00519803 -2.66749e-09 3.43205e-08 -2.03239e-08 -0.000346851 0.00446267 -0.00264269 -1.69142e-15 
0.000381993 -4.56209e-10 6.36421e-09 -6.5848e-10 -1.28414e-06 0.000378665 -5.03033e-05 -0.000483936 
0.00333607 -4.76273e-10 2.6723e-08 -7.01878e-09 -5.74985e-05 0.00322615 -0.000847347 1.61948e-15 
0.00044942 -8.14443e-10 4.37503e-09 -1.862e-09 -1.17742e-05 0.000422195 -0.000153594 -0.00662858 
0.000983137 3.64852e-10 8.73588e-09 -5.07267e-09 -3.74098e-05 0.000848477 -0.000495222 0.0134055 
0.000143888 -6.42934e-11 1.23989e-09 -7.91006e-10 -6.28414e-06 0.000121189 -7.73142e-05 -6.62201e-18 
0 0 0 0 0 0 0 0 
0.00152556 -3.09509e-10 5.84281e-09 -1.99147e-09 -7.63959e-05 0.00144217 -0.000491553 -5.35126e-16 
0.000755357 -1.7325e-10 2.88153e-09 -1.05064e-09 -4.25999e-05 0.000708528 -0.000258336 2.49882e-17 
0.000460256 7.63345e-10 8.8882e-09 -1.76075e-09 -1.25757e-06 0.000459046 -3.33266e-05 0.0317483 
0.000181766 2.32005e-10 1.69836e-09 -5.29133e-10 -4.52688e-06 0.000176635 -4.26435e-05 0.0269991 
0.0051547 -1.31389e-09 1.77192e-08 -9.19602e-09 -0.000338524 0.00456535 -0.00236936 -2.23435e-15 
0 0 0 0 0 0 0 0 
0.00365058 -1.83908e-10 1.07153e-09 -3.58939e-09 -0.000179012 0.001043 -0.00349383 1.97839e-16 
0.000559749 -8.59939e-11 1.07786e-09 -5.99737e-09 -1.41944e-05 0.000165941 -0.000534398 0.0103234 
0.00054126 -3.85494e-09 1.79141e-09 -1.02853e-08 -6.62296e-06 7.2526e-05 -0.000536338 0.575862 
0.000964826 -5.04947e-10 4.76198e-09 -5.58203e-09 -6.62422e-05 0.000624706 -0.000732287 5.77713e-16 
0.00148462 -3.43014e-10 2.30974e-09 -5.47001e-09 -8.56228e-05 0.000576555 -0.00136542 6.34189e-17 
0 0 0 0 0 0 0 0 
0 0 0 0 0 0 0 0 
0.000329331 5.38888e-10 5.22655e-10 -2.63697e-09 -1.34668e-05 0.00012676 -0.00030366 0.0389011 
0 0 0 0 0 0 0 0 
0.00100919 -8.09037e-10 -1.62686e-09 -1.18281e-08 -2.12293e-05 0.000273725 -0.000971132 1.4581 
0 0 0 0 0 0 0 0 
0.000964211 -2.84575e-09 9.13828e-09 -1.43153e-08 -1.02733e-05 0.000215651 -0.00093973 1.05204 
0.000172372 1.74061e-10 1.78571e-09 -2.48994e-09 -1.30759e-06 3.39527e-05 -0.00016899 -0.0228751 
0 0 0 0 0 0 0 0 
0.00108432 -1.97511e-09 4.51181e-09 -1.68649e-08 -1.67385e-05 0.000332835 -0.00103184 -0.00120245 
0 0 0 0 0 0 0 0 
0.000526625 1.37241e-12 -1.27691e-11 -3.0659e-09 2.35735e-07 -2.19331e-06 -0.00052662 -2.32744e-17 
0.000319738 -1.63492e-10 -1.32754e-09 -2.74179e-09 -1.19708e-05 -8.13353e-05 -0.000308988 0.0543619 
0.000117673 1.10225e-09 -1.04242e-09 -1.91831e-09 -8.30881e-07 -1.5284e-05 -0.000116673 0.000302811 
0.000693998 -1.55793e-10 -1.86104e-09 -7.33628e-09 -1.42822e-05 -0.00017061 -0.000672548 -2.6086e-16 
0.00057822 -5.56646e-09 -2.65212e-09 -5.63409e-09 -1.43809e-05 -0.000156818 -0.000556363 0.781037 
0.000549696 4.71544e-10 -1.06037e-09 -2.71166e-09 -2.26376e-05 -0.00021913 -0.000503623 0.09191 
0.000424092 -2.19073e-10 -1.80315e-09 -2.68461e-09 -2.86629e-05 -0.00023592 -0.000351247 -8.86424e-18 
0 0 0 0 0 0 0 0 
0.000490468 -1.08118e-10 -1.50438e-09 -8.27021e-09 -6.30795e-06 -8.777e-05 -0.000482509 -7.9055e-17 
0.00077696 -2.19013e-10 -3.14538e-09 -7.47222e-09 -2.09815e-05 -0.000301328 -0.000715841 -1.94715e-17 
0 0 0 0 0 0 0 0 
0.000328797 -8.15552e-10 -1.14881e-09 -2.31093e-09 -1.3445e-05 -0.000126555 -0.000303167 -0.11917 
0.00040995 -3.86043e-10 -1.33504e-09 -2.44868e-09 -2.01601e-05 -0.000222091 -0.000343988 -0.00268383 
0.000261225 -1.22808e-10 -1.14422e-09 -1.63374e-09 -1.60535e-05 -0.000149573 -0.000213562 1.77126e-17 
0 0 0 0 0 0 0 0 
0.000308028 7.77318e-10 1.65701e-09 -5.53417e-09 -1.33488e-06 -3.2418e-05 -0.000306315 0.0608597 
0.000232057 -8.52411e-11 -1.11035e-09 -1.55905e-09 -1.03244e-05 -0.000134485 -0.000188832 1.64118e-17 
0 0 0 0 0 0 0 0 
0.000762602 -3.24836e-10 -3.75441e-09 -3.61044e-09 -4.74665e-05 -0.000548611 -0.000527574 -4.90048e-16 
0.000196557 -8.96143e-11 -1.75461e-09 -5.00179e-10 -9.64268e-06 -0.000188799 -5.38203e-05 0 
0.000490751 -6.3382e-10 -4.74293e-09 -2.55146e-09 -1.45011e-05 -0.000468471 -0.000145469 0.0388382 
0.000517012 -8.34116e-11 -8.71778e-09 -1.58579e-09 -4.86668e-06 -0.000508642 -9.25236e-05 2.71762e-18 
0.000254084 -1.31252e-10 -1.60842e-09 -1.08032e-09 -1.71726e-05 -0.000210441 -0.000141345 -7.09139e-17 
0.000986614 -4.11308e-10 -6.67904e-09 -3.67832e-09 -5.31432e-05 -0.000862967 -0.000475258 2.80117e-16 
0.000528666 -2.06265e-10 -4.67823e-09 -2.7305e-09 -2.01165e-05 -0.000456255 -0.000266298 0 
0 0 0 0 0 0 0 0 
0.000268185 -8.78303e-11 -2.62874e-09 -1.04877e-09 -8.31856e-06 -0.000248972 -9.93306e-05 5.13339e-17 
0 0 0 0 0 0 0 0 
0 0 0 0 0 0 0 0 
0.000692164 -1.9337e-10 -6.06091e-09 -7.86035e-11 -8.98677e-06 -0.00067989 -0.000129457 -0.0843122 
0.000370218 -3.29083e-09 -6.13995e-09 -6.29556e-10 -2.8792e-06 -0.000363236 -7.1501e-05 0.56132 
0.00126953 -1.42598e-09 -2.99796e-08 -7.65942e-10 -3.49351e-08 -0.00126942 -1.71812e-05 0.0204027 
0 0 0 0 0 0 0 0 
0 0 0 0 0 0 0 0 
6.17645e-05 -7.72889e-10 -1.57156e-09 4.29447e-10 -7.38736e-08 -6.1523e-05 -5.45631e-06 0.0227885 
0.000111284 0 -8.34629e-10 5.31369e-12 1.38383e-23 -0.000111282 7.08477e-07 0 
0.000447061 -2.649e-11 -1.24727e-08 9.70846e-10 -9.46619e-07 -0.000445711 3.46931e-05 4.38814e-17 
0.000364785 -4.26267e-11 -3.37428e-09 6.0325e-10 -4.53598e-06 -0.000359063 6.4193e-05 -1.44188e-17 
0.0022519 -5.95008e-10 -2.12926e-08 9.25765e-09 -5.76903e-05 -0.00206447 0.000897596 -4.20408e-16 
2.62215e-05 -7.51202e-12 -3.68233e-10 1.42901e-10 -4.98599e-07 -2.44409e-05 9.48483e-06 0 
0 0 0 0 0 0 0 0 
0 0 0 0 0 0 0 0 
0.000769621 -1.73069e-10 -1.2467e-08 2.86094e-09 -1.04124e-05 -0.000750054 0.000172123 -2.95515e-16 
0.000243671 -6.96519e-11 -2.25849e-09 1.08944e-09 -6.7659e-06 -0.000219387 0.000105827 0 
0.000347611 -1.1539e-10 -3.27942e-09 1.51786e-09 -1.10941e-05 -0.000315299 0.000145935 2.27984e-17 
0.000173798 8.36007e-10 -1.15748e-09 5.07643e-10 -6.15536e-06 -0.00016207 6.24613e-05 0.0454281 
0 0 0 0 0 0 0 0 
0.00199265 -8.08241e-09 -1.30538e-08 8.34723e-09 -9.30994e-05 -0.00181494 0.000817309 2.73127 
0.000262261 -1.05301e-09 -1.33089e-09 1.82399e-09 -1.54301e-05 -0.000235643 0.000114083 0.0620423 
0.000263977 -4.3319e-09 -7.44191e-09 -3.23691e-10 -6.49481e-07 -0.000262562 2.72902e-05 0.180548 
2.52427e-05 -4.78033e-12 -2.94001e-10 1.05104e-10 -3.86437e-07 -2.37667e-05 8.49648e-06 1.36921e-18 
0.000629243 -1.32794e-09 -3.35488e-09 1.95907e-09 -3.55764e-05 -0.000481739 0.000403248 -0.0192768 
0.00568766 -1.27184e-09 -7.6275e-09 2.12408e-08 -0.000320016 -0.0019192 0.0053445 1.09101e-15 
0.000252104 -7.32079e-11 -6.2178e-10 1.95898e-09 -8.97406e-06 -7.62199e-05 0.000240138 -2.65761e-16 
0.00186195 -5.18087e-09 -7.56087e-09 1.66869e-08 -4.63719e-05 -0.000436824 0.00180939 2.32289 
0.000190381 -1.1397e-09 -8.38971e-10 3.63992e-09 -1.30829e-06 -1.77059e-05 0.000189551 0.0191937 
0.000151759 -5.85817e-13 -7.24632e-12 1.13819e-09 -7.81073e-08 -9.66156e-07 0.000151756 0 
0.000450839 -1.14913e-10 -8.043e-10 1.54975e-09 -2.96075e-05 -0.000207228 0.000399294 1.74558e-17 
0 0 0 0 0 0 0 0 
0.00139159 -4.58813e-10 -4.37682e-09 8.56518e-09 -6.63039e-05 -0.000632502 0.00123777 -6.26604e-16 
0.00101823 -3.71365e-10 -2.97353e-09 7.55119e-09 -4.65451e-05 -0.000372688 0.000946427 2.71727e-16 
0.000419161 -1.35248e-10 -1.23991e-09 3.08711e-09 -1.70265e-05 -0.000156094 0.00038864 0 
0.00210874 -4.96171e-10 -7.84947e-09 2.0637e-08 -4.73759e-05 -0.000749491 0.00197048 2.48409e-15 
0.00035079 -2.08383e-11 -1.02197e-09 3.56111e-09 -7.63272e-06 -0.000109735 0.000333097 0.0262642 
0.00101875 -1.9392e-10 -2.85784e-09 1.08807e-08 -1.75583e-05 -0.000258761 0.000985185 0 
0.000210435 5.65685e-10 -1.29752e-09 3.49349e-09 -1.06005e-06 -2.73328e-05 0.00020865 -0.00604137 
0 0 0 0 0 0 0 0 
0.00135355 -3.98396e-10 -3.35547e-09 1.6891e-08 -3.13048e-05 -0.000263663 0.00132725 -1.20314e-15 
0.000119952 -1.10264e-11 -4.9202e-10 2.92707e-09 -4.45609e-07 -1.9884e-05 0.000118292 1.0952e-17 
0.000238182 -5.71235e-11 -1.18528e-09 2.697e-09 -4.61758e-06 -9.58124e-05 0.000218012 1.64298e-17 
0.000708496 2.28901e-10 1.13336e-09 3.08235e-09 -3.45629e-05 0.000207732 0.000676476 -0.0405404 
0.00107312 -4.13228e-09 4.81606e-09 1.67289e-08 -7.60261e-06 0.000211376 0.00105207 0.472563 
0.000133748 -3.27413e-11 2.98825e-10 1.68451e-09 -2.55919e-06 2.33574e-05 0.000131668 2.64781e-17 
0.00201193 -1.12454e-09 5.72562e-09 2.49479e-08 -4.65318e-05 0.000391913 0.00197284 -0.0652661 
7.61107e-05 -3.25513e-11 3.93102e-10 6.73512e-10 -3.17418e-06 3.83326e-05 6.56763e-05 -8.25817e-19 
0 0 0 0 0 0 0 0 
0 0 0 0 0 0 0 0 
0 0 0 0 0 0 0 0 
0.000224203 -2.59071e-10 3.0108e-10 3.75759e-09 -3.13228e-06 5.69501e-05 0.000216827 0.0598425 
0.000450685 -1.47599e-10 1.76246e-09 4.4176e-09 -1.39794e-05 0.000166926 0.000418399 1.28335e-17 
6.96683e-05 -2.20084e-11 1.59308e-10 5.50303e-10 -2.67439e-06 1.93587e-05 6.68713e-05 -1.0291e-18 
0.000750321 -3.35266e-10 4.1248e-09 6.46556e-09 -3.27694e-05 0.000403164 0.000631954 0 
0.000306276 1.71301e-09 4.02665e-10 2.55472e-09 -1.40004e-05 0.000112102 0.000284679 0.0881839 
0.000606046 -5.45368e-10 1.75256e-09 4.44551e-09 -3.49526e-05 0.000235359 0.000557384 -0.00538043 
0.000316047 -3.38369e-11 1.47578e-09 9.18963e-09 -1.14898e-06 5.01121e-05 0.000312047 7.36177e-17 
0.00102663 -2.48805e-10 2.34376e-09 9.70818e-09 -2.55682e-05 0.000240854 0.000997651 2.08868e-17 
0.000698293 -1.77989e-10 1.24576e-09 2.40037e-09 -4.5859e-05 0.000320971 0.000618456 0 
0.000254412 -1.36389e-08 -1.38884e-09 -7.63497e-08 0 0 -0.000254412 0.0688982 
0 0 0 0 0 0 0 0 
0.000402003 -1.29099e-09 1.0659e-08 8.60401e-10 0 0.000399658 4.33521e-05 -0.00906157 
0.000726321 -6.56869e-09 1.40558e-08 1.32686e-08 0 0.000547916 0.000476791 0.378869 
0.00149472 0 3.36276e-08 3.58548e-08 0 0.00102252 0.00109025 -1.66868e-16 
0.000305597 0 9.83061e-09 2.08908e-09 0 0.000298922 6.35231e-05 0 
0.00109153 -4.3787e-09 4.67607e-09 -3.56056e-08 0 0.000172523 -0.00107781 0.31381 
0.000492833 0 1.12452e-08 -1.16721e-08 0 0.000341934 -0.000354916 1.03005e-18 
0.000319254 0 1.02983e-08 -2.04446e-09 0 0.000313143 -6.21662e-05 7.21033e-18 
0.000632398 -2.828e-09 1.33992e-08 -1.21079e-08 0 0.000282307 -0.000565889 0.716652 
0.000401108 -7.0162e-10 9.22194e-09 -5.36638e-09 0 0.000352005 -0.000192301 0.0150766 
0.000472273 -3.1059e-10 5.87379e-12 -7.61344e-09 0 -3.01981e-05 -0.000471306 0.0281702 
0 0 0 0 0 0 0 0 
0 0 0 0 0 0 0 0 
0.000240573 0 -5.22581e-09 -3.68956e-09 0 -0.000196527 -0.000138753 -5.09576e-18 
0.000584994 -3.76928e-09 -1.77336e-08 -9.74405e-09 0 -0.000400188 -0.000426694 0.441083 
0.000582554 -5.46767e-10 -1.88681e-08 -3.37941e-09 0 -0.000569829 -0.000121093 -0.00304366 
0.000914384 0 -4.75294e-09 2.96933e-08 0 -0.000144524 0.00090289 6.15968e-16 
0.00148452 -2.47256e-09 -3.39336e-08 3.51004e-08 0 -0.00102998 0.00106908 0.49668 
0.00039376 -1.08779e-09 -1.29091e-08 1.47691e-09 0 -0.000386222 7.66742e-05 -0.00141091 
0.000864004 -7.58165e-09 -6.68728e-09 2.20333e-08 0 -0.000305502 0.00080819 0.486115 
0.00104362 0 -2.28827e-08 1.57e-08 0 -0.000860548 0.00059043 -1.6816e-16 
0.000554655 4.78811e-10 -1.61308e-09 -1.68807e-09 0 -0.00055424 2.14319e-05 -0.215314 
0 0 0 0 0 0 0 0 
0.0011208 -1.27563e-08 1.18279e-08 -1.86955e-08 -0.000559858 0.000519114 -0.000820526 -2.97348e-18 