ITEM: TIMESTEP
320
ITEM: NUMBER OF SURFS
6916
ITEM: BOX BOUNDS oo rr rr
-0.35 0.35
-0.25 0.25
-0.25 0.25
ITEM: SURFS f_save[1] f_save[2] f_save[3] f_save[4] f_save[5] f_save[6] f_save[7] f_save[8] 
0.00447898 -3.36064e-08 2.41612e-09 -3.3674e-10 -0.00447898 0 0 3.49341 
0 0 0 0 0 0 0 0 
0 0 0 0 0 0 0 0 
0 0 0 0 0 0 0 0 
0.00851534 -2.07562e-08 0 0 -0.00851534 0 0 0 
0.00659188 -1.60677e-08 0 0 -0.00659188 0 0 0 
0 0 0 0 0 0 0 0 
0.00725531 -1.72314e-08 0 0 -0.00725531 0 0 0 
0.0103175 -2.4504e-08 0 0 -0.0103175 0 0 0 
0 0 0 0 0 0 0 0 
0 0 0 0 0 0 0 0 
0.00717798 -1.74963e-08 0 0 -0.00717798 0 0 0 
0.0155125 -3.78119e-08 0 0 -0.0155125 0 0 0 
0.0047935 -1.13846e-08 0 0 -0.0047935 0 0 0 
0.0073628 -1.74868e-08 0 0 -0.0073628 0 0 0 
0 0 0 0 0 0 0 0 
0 0 0 0 0 0 0 0 
0.00687719 -1.63333e-08 0 0 -0.00687719 0 0 0 
0 0 0 0 0 0 0 0 
0 0 0 0 0 0 0 0 
0.00849394 -2.01731e-08 0 0 -0.00849394 0 0 0 
0 0 0 0 0 0 0 0 
0 0 0 0 0 0 0 0 
0.00263704 -6.26298e-09 0 0 -0.00263704 0 0 0 
0.00354343 -8.41566e-09 0 0 -0.00354343 0 0 0 
0 0 0 0 0 0 0 0 
0 0 0 0 0 0 0 0 
0.00336232 -7.9855e-09 0 0 -0.00336232 0 0 0 
0 0 0 0 0 0 0 0 
0.00434209 -1.08553e-08 0 0 -0.00434209 0 0 4.14628e-15 
0.00386137 -1.83415e-07 -8.4389e-10 -2.28895e-09 -0.00386137 0 0 0.460388 
0.00481044 -4.13698e-07 2.21584e-09 -2.03061e-09 -0.00481044 0 0 0.727124 
0.00201029 -9.54886e-08 0 0 -0.00201029 0 0 0 
0.00696625 -1.74156e-08 0 0 -0.00696625 0 0 0 
0 0 0 0 0 0 0 0 
0.000423673 1.00622e-09 0 0 0.000423673 0 0 0 
0.00043381 1.0303e-09 0 0 0.00043381 0 0 0 
0.00125709 1.53208e-09 0 0 0.00125709 0 0 0 
0 0 0 0 0 0 0 0 
0 0 0 0 0 0 0 0 
0 0 0 0 0 0 0 0 
0 0 0 0 0 0 0 0 
0 0 0 0 0 0 0 0 
0 0 0 0 0 0 0 0 
0.000325217 7.72391e-10 0 0 0.000325217 0 0 0 
0 0 0 0 0 0 0 0 
0 0 0 0 0 0 0 0 
0.000405891 9.63991e-10 0 0 0.000405891 0 0 0 
0 0 0 0 0 0 0 0 
0 0 0 0 0 0 0 0 
0.000735614 1.79306e-09 0 0 0.000735614 0 0 0 
0 0 0 0 0 0 0 0 
0 0 0 0 0 0 0 0 
0 0 0 0 0 0 0 0 
0 0 0 0 0 0 0 0 
0.000742325 1.80942e-09 0 0 0.000742325 0 0 0 
0.000740084 1.80395e-09 0 0 0.000740084 0 0 0 
0.000437367 1.06608e-09 -6.3577e-10 1.21327e-09 0.000437367 0 0 -0.0872009 
0 0 0 0 0 0 0 0 
0 0 0 0 0 0 0 0 
0.000259506 6.32547e-10 0 0 0.000259506 0 0 0 
0 0 0 0 0 0 0 0 
1.27161e-05 -3.02666e-07 2.54183e-07 2.61037e-07 0 8.99162e-06 8.99163e-06 0.0184612 
1.25316e-05 -1.85525e-07 -1.09485e-07 -1.19134e-07 0 -8.8612e-06 -8.8612e-06 0.0246105 
0.000259202 -7.85082e-09 1.47745e-07 2.1439e-09 0 0.000259202 0 0.0187568 
0.000213626 -8.73592e-09 -1.21767e-07 -5.33688e-09 0 -0.000213626 0 0.0376126 
0.000163426 3.96506e-09 9.3153e-08 -5.37449e-10 0 0.000163426 0 0.00156099 
0.000249934 -8.43685e-09 -1.42462e-07 -1.95848e-09 0 -0.000249934 0 0.022452 
0.000220948 2.7042e-09 1.2594e-07 3.8703e-09 0 0.000220948 0 -0.00193457 
0.000292483 -1.22762e-08 -1.86728e-09 1.66715e-07 0 0 0.000292483 0.0366089 
0.000219099 -8.94647e-09 2.27318e-09 1.28173e-07 0 0 0.000219099 0.0451799 
0.000210148 5.66904e-09 2.02876e-09 -1.22936e-07 0 0 -0.000210148 -0.00109754 
0.000235774 7.68903e-09 4.7867e-09 1.37928e-07 0 0 0.000235774 -0.00204376 
0.000143299 -3.98259e-09 8.16803e-08 1.1352e-09 0 0.000143299 0 0.0185592 
7.4916e-05 -6.96835e-09 4.38258e-08 -5.26584e-09 0 7.4916e-05 0 0.0288366 
0.000160193 -1.13335e-08 2.77609e-10 -9.13102e-08 0 0 -0.000160193 0.0552095 
0.000211038 -1.23747e-10 1.20292e-07 -2.27676e-09 0 0.000211038 0 0.00218022 
0.00017723 -1.2607e-08 -1.01021e-07 2.89955e-09 0 -0.00017723 0 0.046093 
0.000230918 -1.62706e-08 -3.897e-09 1.31623e-07 0 0 0.000230918 0.0607498 
0.000241948 3.52805e-09 -5.22706e-09 1.37911e-07 0 0 0.000241948 0.00461272 
0.000151449 -9.93844e-09 1.71771e-09 -8.63262e-08 0 0 -0.000151449 0.0296946 
0.000154763 -1.3298e-09 -8.8215e-08 -6.17036e-09 0 -0.000154763 0 0.0102128 
0.000184898 -7.58356e-09 1.05392e-07 -1.58523e-09 0 0.000184898 0 0.0330839 
0.000194454 2.68866e-09 1.57093e-09 -1.10839e-07 0 0 -0.000194454 -0.00142831 
0.000165322 -6.75723e-09 9.67135e-08 -2.57973e-09 0 0.000165322 0 0.0102595 
0.000135974 2.02108e-09 -2.90354e-09 7.95447e-08 0 0 0.000135974 -0.000320085 
0.000236568 3.5734e-09 -1.38392e-07 -1.52293e-09 0 -0.000236568 0 -0.00112672 
8.56714e-05 2.48006e-09 -1.48705e-09 -4.88327e-08 0 0 -8.56714e-05 0.000245633 
0.0002063 -2.98194e-09 -1.20685e-07 -1.33964e-09 0 -0.0002063 0 0.0105246 
0.000191342 -1.69641e-08 4.79938e-09 1.11935e-07 0 0 0.000191342 0.0518091 
0.000130017 -4.58386e-09 1.77997e-09 -7.41094e-08 0 0 -0.000130017 0.0251948 
0.000108685 -2.4692e-09 -6.35807e-08 -4.61714e-09 0 -0.000108685 0 0.0178149 
0.000192986 1.45946e-09 -1.10002e-07 -5.21772e-09 0 -0.000192986 0 0.000984496 
0.00015425 2.33892e-10 4.6554e-10 4.51181e-08 0 0 0.00015425 -0.00127336 
0.000109803 -4.0185e-09 -2.5583e-10 6.25877e-08 0 0 0.000109803 0.0177975 
0.000164364 -1.32777e-08 2.40208e-09 -9.36877e-08 0 0 -0.000164364 0.0508174 
9.44403e-05 -8.84776e-09 -2.22997e-09 5.3831e-08 0 0 9.44403e-05 0.0298645 
9.97006e-05 -8.65372e-09 -5.68294e-08 2.00183e-09 0 -9.97006e-05 0 0.0315554 
0.000143738 -5.45229e-09 3.86009e-10 -8.19307e-08 0 2.81832e-11 -0.000143738 0.0248432 
0.000168993 1.27075e-09 -9.6326e-08 4.54974e-09 0 -0.000168993 0 -0.0002543 
9.78078e-05 -1.6189e-08 -5.57505e-08 1.56851e-09 0 -9.78078e-05 0 0.0456603 
6.83179e-05 4.15702e-11 -1.20718e-09 3.89412e-08 0 0 6.83179e-05 -0.000374907 
0.000196565 -1.38166e-09 1.12042e-07 1.95752e-09 0 0.000196565 0 0.0116603 
6.1162e-05 2.02505e-09 1.43451e-09 -3.48624e-08 0 0 -6.1162e-05 -0.0034885 
0.000232671 -7.79142e-09 -1.32622e-07 8.32197e-10 0 -0.000232671 0 0.018996 
0.00016449 -8.96089e-09 3.51686e-09 -9.37595e-08 0 0 -0.00016449 0.029976 
0.000263658 -7.14197e-10 1.87843e-08 1.23828e-09 -5.01577e-07 0.000263657 0 -0.00704711 
0.000615509 1.18858e-10 1.12059e-08 -3.39918e-10 -4.1746e-05 0.000613456 -2.7928e-05 -0.0460801 
0.000240009 -4.24277e-11 3.86898e-09 -1.3425e-10 -2.63023e-06 0.00023985 -8.32255e-06 -1.00407e-17 
0.000444022 7.14071e-10 7.97146e-09 -1.2552e-09 -1.37767e-05 0.000443195 -2.33107e-05 -0.0314042 
0.000218652 -6.33926e-11 3.60437e-09 -4.07689e-11 -3.84475e-06 0.000218604 -2.47262e-06 8.18596e-18 
0.00055875 -1.7722e-11 1.04766e-09 0 -9.45035e-06 0.00055867 0 -1.43948e-17 
0.00032489 -1.81289e-10 7.83276e-09 -3.66546e-10 -1.719e-07 0.000324861 4.32727e-06 -0.00172764 
0.000637447 -6.44748e-10 1.1761e-08 2.22054e-10 -2.43943e-05 0.000636855 1.26049e-05 -0.057357 
0.000244621 -4.76152e-11 3.94332e-09 1.36829e-10 -2.95178e-06 0.000244456 8.48237e-06 -1.1714e-17 
0.000246435 -8.94997e-11 1.75585e-08 9.0813e-10 -1.17387e-07 0.000246435 0 -0.0184948 
0.000133426 -3.07055e-10 -6.24038e-10 9.50607e-09 -2.53827e-07 0 0.000133426 -0.00256265 
0.000308337 -1.60744e-09 1.1411e-09 5.45589e-09 -2.09125e-05 1.39904e-05 0.000307308 0.00372053 
0.000130301 -6.93119e-11 9.79738e-10 2.0685e-09 -1.42795e-06 4.51832e-06 0.000130215 0.0158633 
1.86674e-05 1.73004e-10 1.26644e-10 3.35692e-10 -5.79195e-07 9.8002e-07 1.86326e-05 -0.000813596 
0.000301112 -2.30394e-10 -6.43196e-10 4.96908e-09 -5.29471e-06 3.40512e-06 0.000301046 0.00854309 
0 0 0 0 0 0 0 0 
0.000248324 -3.16543e-12 -7.96839e-11 5.9821e-09 -1.31389e-07 -3.30747e-06 0.000248302 7.49307e-18 
0.000179213 -4.09053e-12 1.4822e-10 3.31746e-09 -6.85828e-06 -3.54376e-06 0.000179047 0.0101441 
0.000233317 -4.5415e-11 -1.30507e-10 3.76111e-09 -2.81538e-06 -8.09041e-06 0.00023316 -1.84078e-17 
0.000144582 9.73755e-10 -1.93771e-09 1.03019e-08 -6.88703e-08 0 0.000144582 0.00718456 
0.000195037 1.94169e-09 -1.39002e-08 9.57534e-10 -3.71035e-07 -0.000195037 0 -0.00686185 
0.000213823 -2.63318e-10 -3.86946e-09 1.7616e-10 -1.45022e-05 -0.00021311 9.70197e-06 1.33803e-17 
0.000276545 2.4475e-10 -4.45459e-09 3.44357e-10 -3.03062e-06 -0.000276362 9.58949e-06 0.00706985 
0.000252703 -1.65931e-10 -4.53837e-09 3.45229e-10 -7.84064e-06 -0.000252233 1.32667e-05 0.00545863 
0.000210824 -6.1123e-11 -3.47532e-09 3.93093e-11 -3.7071e-06 -0.000210778 2.3841e-06 -3.27438e-18 
0 0 0 0 0 0 0 0 
0.000329669 -4.20236e-12 -7.94171e-09 -1.05787e-10 -1.74429e-07 -0.00032964 -4.39093e-06 1.40057e-17 
0.000191997 -1.35772e-10 -3.54455e-09 -7.01549e-11 -7.34751e-06 -0.000191819 -3.79655e-06 1.84065e-16 
0 0 0 0 0 0 0 0 
0.000222941 -2.31804e-10 -1.58844e-08 1.23967e-09 -1.06196e-07 -0.000222941 0 0.00198277 
0.000356148 -5.61294e-09 1.55046e-10 -2.5365e-08 -6.77529e-07 0 -0.000356148 0.138996 
0.000421278 -5.18795e-10 -3.47073e-10 -7.62368e-09 -2.85726e-05 -1.9115e-05 -0.000419873 2.26722e-17 
0.000156629 -1.02862e-08 -8.28359e-10 -2.38668e-09 -1.71648e-06 -5.43127e-06 -0.000156525 0.933589 
3.535e-05 -1.62207e-10 2.82327e-10 -6.4793e-10 -1.09681e-06 -1.85584e-06 -3.52842e-05 -0.000490398 
0.000341754 -7.9521e-10 -6.08441e-10 -5.61523e-09 -6.00935e-06 -3.86472e-06 -0.000341679 -0.029946 
0 0 0 0 0 0 0 0 
0.000125332 -9.31025e-09 8.96496e-10 -3.00291e-09 -6.63135e-08 1.66932e-06 -0.000125321 0.770251 
0.000364495 -2.57754e-10 1.33185e-10 -6.7291e-09 -1.39488e-05 7.2075e-06 -0.000364156 -1.89909e-17 
0.000128409 -2.49946e-11 7.18257e-11 -2.06997e-09 -1.54948e-06 4.45265e-06 -0.000128322 -1.67343e-18 
0.000129453 -2.82213e-10 3.02949e-10 -9.22339e-09 -6.16637e-08 0 -0.000129453 -0.00202574 
0 0 0 0 0 0 0 0 
0 0 0 0 0 0 0 0 
0 0 0 0 0 0 0 0 
0 0 0 0 0 0 0 0 
0 0 0 0 0 0 0 0 
0 0 0 0 0 0 0 0 
0 0 0 0 0 0 0 0 
0 0 0 0 0 0 0 0 
0 0 0 0 0 0 0 0 
0 0 0 0 0 0 0 0 
0 0 0 0 0 0 0 0 
0 0 0 0 0 0 0 0 
0 0 0 0 0 0 0 0 
0 0 0 0 0 0 0 0 
0 0 0 0 0 0 0 0 
0 0 0 0 0 0 0 0 
0.000332243 -1.35956e-09 7.67255e-09 -2.06039e-10 -5.79497e-05 0.000327033 -8.78213e-06 1.84095e-17 
0.000108898 -3.27094e-10 1.29314e-09 -2.60999e-10 -2.62072e-05 0.000103608 -2.09116e-05 1.89246e-18 
0.000456526 -7.47641e-10 3.37166e-09 -2.73533e-10 -9.85223e-05 0.000444309 -3.60455e-05 0 
0.000695284 -2.23479e-09 1.18801e-08 -9.85722e-10 -0.000128112 0.000681039 -5.65077e-05 -2.10456e-16 
0.000576668 -1.62959e-09 1.08874e-08 -1.56717e-09 -0.00011242 0.000561858 -6.49805e-05 -0.00102828 
0.000461886 -7.05133e-10 3.17233e-09 -4.96076e-10 -0.000109174 0.000445803 -5.17619e-05 0.0327711 
8.11355e-05 -2.2124e-10 9.98463e-10 -1.50366e-10 -1.73656e-05 7.83716e-05 -1.18026e-05 -6.3565e-18 
0.000126513 -3.81106e-10 1.64702e-09 -2.26814e-10 -2.82671e-05 0.000122162 -1.6823e-05 0 
0.000462487 -9.78603e-10 5.24046e-09 -1.20151e-09 -0.000107748 0.000439241 -9.67024e-05 0.0170709 
0.000367896 -1.08378e-09 4.07045e-09 -6.51199e-10 -7.06062e-05 0.000360638 -1.73915e-05 0.0296746 
0.000190773 -1.10086e-09 2.07433e-09 -1.74608e-10 -4.5719e-05 0.000180381 -4.20318e-05 -0.0339611 
8.1905e-05 -2.74656e-10 1.53871e-09 5.82308e-11 -1.43824e-05 8.05746e-05 3.04927e-06 -1.41356e-18 
0.000275573 -9.40786e-09 2.01034e-09 2.77951e-10 -5.77732e-05 0.000268164 2.62774e-05 1.02647 
0.000292956 -8.57324e-10 6.77458e-09 9.49439e-10 -5.16217e-05 0.000288169 1.08279e-05 0.0200438 
0.0010505 -2.45821e-09 9.3571e-09 1.88858e-09 -0.000261976 0.000997202 0.00020127 -1.84116e-16 
0.000673015 -1.08117e-09 4.37912e-09 6.63054e-10 -0.000159603 0.000646449 9.78805e-05 -2.55034e-16 
0.000615195 -3.84782e-09 6.68537e-09 3.08764e-09 -0.000139912 0.000590808 9.91764e-05 -0.0502816 
0.000531747 -1.49094e-09 6.98195e-09 8.64195e-10 -0.000110242 0.000516254 6.38997e-05 -7.68454e-17 
0.000468335 -9.82963e-10 4.83412e-09 4.12999e-10 -9.29955e-05 0.000457343 3.90727e-05 -1.02154e-17 
0.000165782 -4.16642e-10 3.18665e-09 -8.25168e-10 -2.97608e-05 0.000162887 8.09621e-06 0.0203295 
0.000535919 -1.76915e-09 9.43848e-09 -6.64472e-10 -0.00010486 0.000519939 7.6661e-05 0.0209242 
3.29119e-05 -7.9202e-11 3.70254e-10 6.24537e-11 -6.79273e-06 3.17547e-05 5.35631e-06 0 
0.000306393 -1.91595e-09 6.2747e-10 3.364e-09 -5.51881e-05 2.80299e-05 0.000300075 -0.0253422 
0.000282053 -4.77083e-10 2.36019e-10 1.93888e-09 -6.69262e-05 3.31092e-05 0.00027199 0 
0.000755748 2.35176e-10 -4.43511e-10 1.35711e-08 -0.000137718 4.96669e-05 0.000741432 0.0118529 
0.0001422 -5.18026e-10 1.93874e-10 2.64851e-09 -2.72257e-05 1.01894e-05 0.000139197 -1.41872e-18 
0.000618939 -1.40562e-09 3.92919e-10 6.93043e-09 -0.000122838 3.43374e-05 0.000605655 -2.24109e-17 
0.000642252 -1.25646e-09 3.0144e-10 9.35444e-09 -0.000133298 5.04371e-05 0.000626239 0.0213806 
0.000460728 -9.20886e-09 7.91582e-10 3.07188e-09 -0.000101372 0.000101715 0.000437776 1.19048 
8.83849e-05 -1.45211e-10 7.99008e-11 5.96752e-10 -2.07228e-05 1.14025e-05 8.51613e-05 -7.70458e-18 
0.000257283 -9.74457e-10 6.86181e-10 4.79719e-09 -4.60503e-05 9.57254e-06 0.000252947 -0.00262612 
0.000982642 -1.18264e-09 2.21534e-09 9.67286e-09 -0.00023299 0.000269246 0.000915865 -0.0356021 
0.000253656 -4.96624e-10 2.3173e-10 1.92616e-09 -5.48578e-05 5.81497e-05 0.000240729 -0.0453727 
0.000234649 -7.73839e-10 -6.63253e-11 4.85985e-09 -4.40456e-05 -1.40144e-05 0.000230052 -0.0131158 
0.000432457 -7.31485e-10 -3.61874e-10 2.97277e-09 -0.000102614 -5.07646e-05 0.000417027 1.22124e-16 
0.000410496 -7.51319e-10 -9.00784e-10 2.9334e-09 -9.76229e-05 -0.000117044 0.000381152 3.5075e-18 
0.000181913 -2.79929e-10 -9.8452e-11 1.21355e-09 -4.07608e-05 -1.43357e-05 0.000176707 3.93066e-18 
0.000309588 -8.11299e-10 -8.26788e-10 3.21527e-09 -7.34933e-05 -7.48964e-05 0.000291263 -3.91253e-17 
0.000415695 -9.6697e-10 -9.24473e-10 4.45271e-09 -8.64564e-05 -8.26567e-05 0.000398115 -7.24061e-18 
0.000229877 -4.95581e-10 -2.06883e-10 2.43809e-09 -4.56323e-05 -1.90494e-05 0.000224495 0 
0.00012651 -1.12492e-09 3.50306e-10 2.06721e-09 -2.44944e-05 -1.22163e-05 0.000123514 -0.0064484 
0.000437212 -8.38057e-09 -5.77914e-10 2.94186e-08 -7.59104e-05 -4.68315e-06 0.000430546 0.0972831 
0.000431983 -2.26992e-09 -1.57496e-09 1.01107e-08 -7.66122e-05 -3.07837e-05 0.00042402 -0.0157598 
0.000457869 -1.9394e-09 -1.06062e-08 -1.3609e-09 -7.98611e-05 -0.000450688 1.21028e-05 -0.00473302 
0.000393745 -1.18269e-09 -4.67564e-09 9.43703e-10 -9.47585e-05 -0.000374619 7.56108e-05 -6.05587e-17 
0.000333236 -5.45732e-10 -2.4611e-09 1.99662e-10 -7.19153e-05 -0.000324318 2.6311e-05 3.55723e-17 
0.000267586 -8.60077e-10 -4.57215e-09 3.79363e-10 -4.93049e-05 -0.000262104 2.17474e-05 -1.70222e-17 
0.000332354 -6.05389e-10 -6.36908e-09 6.6561e-10 -6.47919e-05 -0.000323819 3.74506e-05 0.00102377 
6.07283e-05 -1.02062e-10 -4.16759e-10 4.83896e-11 -1.43541e-05 -5.86138e-05 6.8056e-06 -1.89826e-18 
0.000405629 -1.19559e-09 -5.09255e-09 -4.95562e-11 -8.68176e-05 -0.000391811 5.90059e-05 -0.0176783 
0.000262139 -1.057e-08 -1.31887e-09 -7.59178e-10 -5.85703e-05 -0.000253123 3.48579e-05 1.19621 
0.000368725 -5.65314e-09 -3.1321e-09 2.79231e-10 -8.59041e-05 -0.000350192 7.70976e-05 0.739957 
6.82975e-05 -1.5067e-10 -7.69584e-10 3.71126e-11 -1.31076e-05 -6.69501e-05 3.22862e-06 4.69673e-18 
0.000713779 -5.39528e-10 -8.6406e-09 7.72407e-10 -0.000171058 -0.000674899 0.000157262 -0.032949 
0.000393482 -6.92971e-10 -7.50213e-09 -3.28142e-10 -6.90949e-05 -0.000387091 -1.46491e-05 -0.00538823 
9.94799e-05 -4.91098e-10 -1.3512e-09 -1.04266e-10 -2.08557e-05 -9.68055e-05 -9.48596e-06 -6.49932e-05 
0.000290773 -6.21729e-10 -6.77064e-09 -7.96362e-10 -5.12371e-05 -0.000286022 -1.07472e-05 0.0127564 
0.000517312 -1.21053e-09 -4.60784e-09 -9.30021e-10 -0.000129008 -0.000491066 -9.91139e-05 1.15073e-17 
0 0 0 0 0 0 0 0 
0.000265932 -7.66155e-10 -3.23525e-09 -5.43088e-10 -6.04802e-05 -0.00025539 -4.28713e-05 3.19638e-18 
0.000351018 -9.84203e-10 -4.60894e-09 -5.70474e-10 -7.27732e-05 -0.000340791 -4.21816e-05 -1.19759e-17 
0.000243209 -1.18454e-09 -2.4369e-09 5.29794e-10 -4.82931e-05 -0.000237501 -2.02904e-05 -0.0207608 
0.000431258 -1.47827e-09 -8.0909e-09 -4.02153e-10 -7.74188e-05 -0.000423729 -2.10612e-05 6.00829e-18 
0.000577923 -1.99184e-09 -9.61802e-09 -2.96804e-09 -0.000113078 -0.00056069 -8.26695e-05 0.00178872 
0.000370462 -8.91513e-10 -4.16765e-09 -7.02991e-10 -7.64602e-05 -0.000357437 -6.02917e-05 1.5743e-16 
0 0 0 0 0 0 0 0 
0 0 0 0 0 0 0 0 
0.000604289 -1.92947e-09 -6.95848e-10 -1.03877e-08 -0.000110118 -3.97133e-05 -0.000592843 4.66033e-17 
0.000115715 -4.17305e-10 -8.97054e-10 -2.10193e-09 -2.21548e-05 -8.29156e-06 -0.000113271 0.00688426 
0.000443578 -1.11041e-08 -1.3159e-09 -2.86042e-09 -8.80348e-05 -2.46088e-05 -0.000434057 1.30715 
0.000537608 -2.26428e-09 -2.75227e-09 -7.37086e-09 -0.000111579 -4.22193e-05 -0.000524204 0.0135393 
0.000543379 -1.21762e-09 -2.28997e-09 -5.5408e-09 -0.000119557 -0.000119962 -0.00051631 -0.00315858 
0.000520482 -8.55123e-10 -4.70516e-10 -3.51416e-09 -0.000122033 -6.71463e-05 -0.000501499 0 
0.000331641 -1.13427e-09 -2.35782e-10 -6.23037e-09 -5.93595e-05 -1.23391e-05 -0.000326052 -2.11902e-17 
0 0 0 0 0 0 0 0 
0.000378411 -9.01082e-09 -2.14164e-10 -1.0207e-09 -8.18385e-05 -8.67495e-05 -0.000359126 1.88495 
0.000261184 -1.02668e-09 3.26666e-10 -5.36236e-09 -4.90264e-05 1.55991e-05 -0.000256066 -5.15616e-18 
0.000901963 -1.52564e-09 7.54752e-10 -6.20024e-09 -0.00021402 0.000105878 -0.000869783 -7.27067e-16 
0.000203506 -3.72472e-10 4.46571e-10 -1.45426e-09 -4.83973e-05 5.80253e-05 -0.000188959 -8.76874e-18 
0 0 0 0 0 0 0 0 
5.23494e-05 -1.37185e-10 1.39805e-10 -5.43682e-10 -1.24273e-05 1.26645e-05 -4.92507e-05 -3.66799e-18 
9.11865e-05 -2.12114e-10 2.02792e-10 -9.76743e-10 -1.8965e-05 1.81315e-05 -8.73301e-05 -1.20677e-18 
0.000223828 -1.12554e-10 4.10531e-10 -2.4314e-09 -4.44316e-05 1.85482e-05 -0.000218588 -0.0126743 
0.000773256 3.11909e-10 2.06874e-09 -1.36442e-08 -0.000149715 7.46685e-05 -0.00075494 -0.000628225 
0.00030981 -2.63096e-09 9.76393e-10 -2.14231e-08 -5.37904e-05 3.3185e-06 -0.000305087 0.00648835 
0.000826034 -4.31649e-09 3.20885e-11 -1.95543e-08 -0.000146497 5.88642e-05 -0.000810806 -0.00779659 
0.000336705 -1.31605e-10 1.42415e-09 -2.20987e-11 -1.89447e-05 0.00031639 0.000113615 -0.00885921 
0.00151231 -3.39899e-10 6.6526e-09 2.04287e-09 -7.37759e-05 0.00144396 0.00044341 5.12676e-17 
0 0 0 0 0 0 0 0 
0.000244202 -7.99022e-11 2.34854e-09 9.88604e-10 -7.65369e-06 0.000224963 9.46967e-05 2.58573e-18 
0.000219008 -7.58765e-12 6.11019e-09 4.75602e-10 -2.71144e-07 0.000218347 1.69956e-05 2.89391e-18 
0.000722428 -1.84138e-10 2.48333e-09 1.28882e-09 -4.74432e-05 0.000639832 0.000332064 8.34608e-17 
0.000268087 -5.61775e-10 1.49396e-09 1.85172e-09 -1.38888e-05 0.000246641 0.000104145 0.0116005 
0.00265853 -5.89236e-10 1.18179e-08 6.84693e-09 -0.000114588 0.0022982 0.00133151 -6.71936e-16 
0.000410345 -7.22171e-10 3.0597e-09 1.07859e-09 -2.1027e-05 0.000381307 0.000150152 0.0279015 
7.59126e-05 1.56875e-10 1.57268e-10 1.34909e-09 -3.03924e-06 7.11506e-05 2.62883e-05 0.0566201 
0.000153757 -4.25837e-11 1.50473e-09 5.72339e-10 -4.06563e-06 0.000143663 5.46434e-05 -6.4431e-19 
0.000156906 -2.22969e-11 1.20695e-09 3.57224e-10 -2.77904e-06 0.000150431 4.45235e-05 -2.35514e-17 
0 0 0 0 0 0 0 0 
0.000233545 -2.90089e-11 3.85095e-09 6.34094e-10 -1.73585e-06 0.000230436 3.79433e-05 4.32091e-17 
0.000337144 -3.70314e-09 8.16151e-09 1.70691e-09 -1.22564e-06 0.00033288 5.34373e-05 0.288243 
0.00040765 -1.49742e-10 2.73875e-09 1.95053e-09 -1.81367e-05 0.000331718 0.000236248 -1.02173e-16 
0 0 0 0 0 0 0 0 
0.000467018 -8.79496e-11 2.31571e-09 8.92475e-10 -1.65401e-05 0.000435501 0.000167842 -2.28448e-17 
9.27196e-05 -2.08392e-11 4.07871e-10 -1.25248e-10 -4.52318e-06 8.85292e-05 -2.71854e-05 0 
0 0 0 0 0 0 0 0 
0.000246627 -6.5757e-11 2.6585e-09 -6.30465e-10 -5.93387e-06 0.000239901 -5.68929e-05 -4.87188e-18 
0.000509266 -1.38843e-09 5.46807e-09 -1.41821e-09 -1.01338e-05 0.00049791 -0.000106468 -0.000633199 
0 0 0 0 0 0 0 0 
0.00414218 -2.12566e-09 2.73492e-08 -1.61956e-08 -0.000276397 0.00355619 -0.0021059 -1.34785e-15 
0.000304401 -3.63541e-10 5.07148e-09 -5.24726e-10 -1.0233e-06 0.000301748 -4.00854e-05 -0.000385637 
0.00265843 -3.7953e-10 2.12949e-08 -5.59309e-09 -4.58191e-05 0.00257084 -0.00067523 1.29052e-15 
0.000358132 -6.49009e-10 3.48635e-09 -1.48378e-09 -9.38253e-06 0.000336437 -0.000122395 -0.00528215 
0.000783437 2.90741e-10 6.9614e-09 -4.04228e-09 -2.98109e-05 0.00067613 -0.00039463 0.0106825 
0.000215535 -9.63075e-11 1.85728e-09 -1.18488e-09 -9.41325e-06 0.000181533 -0.000115812 -5.27691e-18 
0 0 0 0 0 0 0 0 
0.00121568 -2.4664e-10 4.65599e-09 -1.58695e-09 -6.0878e-05 0.00114923 -0.000391706 -4.26429e-16 
0.000601925 -1.38059e-10 2.29622e-09 -8.37225e-10 -3.39468e-05 0.000564608 -0.000205862 1.99125e-17 
0.000366767 6.0829e-10 7.08278e-09 -1.40309e-09 -1.00213e-06 0.000365802 -2.65571e-05 0.0252995 
0.000144845 1.84879e-10 1.35338e-09 -4.21653e-10 -3.60736e-06 0.000140756 -3.39815e-05 0.0215149 
0.00432019 -1.10118e-09 1.48505e-08 -7.70725e-09 -0.00028372 0.00382625 -0.00198578 -1.7805e-15 
0.000803091 -1.85137e-10 1.24089e-09 -2.95826e-09 -4.62706e-05 0.000310131 -0.000739346 -1.07945e-16 
0.00290906 -1.46552e-10 8.53877e-10 -2.8603e-09 -0.00014265 0.000831144 -0.00278415 1.57653e-16 
0.00044605 -6.85264e-11 8.58922e-10 -4.77916e-09 -1.13112e-05 0.000132234 -0.000425848 0.00822642 
0.000431316 -3.0719e-09 1.42753e-09 -8.19609e-09 -5.27767e-06 5.77941e-05 -0.000427394 0.45889 
0.000768846 -4.0238e-10 3.7947e-09 -4.44818e-09 -5.27867e-05 0.000497813 -0.000583541 4.60365e-16 
0.00118306 -2.73339e-10 1.84058e-09 -4.35891e-09 -6.82307e-05 0.000459443 -0.00108807 5.0537e-17 
0 0 0 0 0 0 0 0 
0 0 0 0 0 0 0 0 
0.000262436 4.29427e-10 4.1649e-10 -2.10134e-09 -1.07314e-05 0.000101012 -0.000241979 0.0309993 
0 0 0 0 0 0 0 0 
0.000804202 -6.44701e-10 -1.2964e-09 -9.42554e-09 -1.69171e-05 0.000218125 -0.000773871 1.16192 
0.000257423 -1.85633e-10 1.41062e-09 -2.53578e-09 -5.29762e-06 6.3284e-05 -0.000249466 -0.00164815 
0.000768356 -2.2677e-09 7.28207e-09 -1.14075e-08 -8.18651e-06 0.000171847 -0.000748847 0.838343 
0.000137359 1.38705e-10 1.42298e-09 -1.98417e-09 -1.04198e-06 2.70561e-05 -0.000134664 -0.0182286 
0 0 0 0 0 0 0 0 
0.000864071 -1.57392e-09 3.59535e-09 -1.34393e-08 -1.33385e-05 0.000265228 -0.00082225 -0.000958205 
0.000388774 -6.80838e-09 1.62348e-09 -9.47381e-09 -8.95151e-07 5.08533e-05 -0.000385433 0.655707 
0.000419654 1.09364e-12 -1.01754e-11 -2.44314e-09 1.87851e-07 -1.74779e-06 -0.00041965 -1.85468e-17 
0.000254791 -1.30283e-10 -1.05788e-09 -2.18486e-09 -9.53921e-06 -6.48141e-05 -0.000246225 0.0433196 
9.37708e-05 8.78357e-10 -8.30676e-10 -1.52865e-09 -6.62108e-07 -1.21795e-05 -9.29741e-05 0.000241303 
0.000553029 -1.24147e-10 -1.48302e-09 -5.84609e-09 -1.13811e-05 -0.000135955 -0.000535937 -2.07873e-16 
0.000460769 -4.43577e-09 -2.1134e-09 -4.48967e-09 -1.14598e-05 -0.000124965 -0.000443352 0.622389 
0.000438039 3.75761e-10 -8.44981e-10 -2.16085e-09 -1.80394e-05 -0.000174619 -0.000401324 0.0732407 
0.000337949 -1.74574e-10 -1.43689e-09 -2.1393e-09 -2.28407e-05 -0.000187998 -0.0002799 -7.06369e-18 
0 0 0 0 0 0 0 0 
0.000605361 -6.02524e-09 -1.7655e-09 -1.01471e-08 -7.78561e-06 -0.00010833 -0.000595538 0.728862 
0.000866691 -1.17501e-09 -4.54827e-09 -7.87028e-09 -2.34046e-05 -0.000336128 -0.000798513 -0.00602179 
0 0 0 0 0 0 0 0 
0.00026201 -6.49893e-10 -9.15462e-10 -1.84152e-09 -1.07139e-05 -0.000100849 -0.000241587 -0.0949633 
0.000326679 -3.07628e-10 -1.06386e-09 -1.95129e-09 -1.60651e-05 -0.000176979 -0.000274115 -0.00213868 
0.000208164 -9.78628e-11 -9.11804e-10 -1.30188e-09 -1.27926e-05 -0.000119191 -0.000170182 1.41147e-17 
0.000400625 -8.9802e-11 -5.44572e-10 -1.49358e-09 -2.25944e-05 -0.000137015 -0.000375788 6.79179e-18 
0.000314495 6.14253e-10 1.19481e-09 -5.59698e-09 -1.36291e-06 -3.30987e-05 -0.000312746 0.0484976 
0.00018492 -6.79265e-11 -8.84807e-10 -1.24237e-09 -8.22726e-06 -0.000107168 -0.000150475 1.30781e-17 
0 0 0 0 0 0 0 0 
0.000607699 -2.58853e-10 -2.99179e-09 -2.87707e-09 -3.78248e-05 -0.000437174 -0.000420411 -3.90507e-16 
0.000156632 -7.14114e-11 -1.3982e-09 -3.9858e-10 -7.68401e-06 -0.000150449 -4.2888e-05 0 
0.000525497 -5.47996e-10 -5.16611e-09 -2.46376e-09 -1.55278e-05 -0.000501639 -0.000155769 0.0309492 
0.000452813 -7.30542e-11 -7.63528e-09 -1.38888e-09 -4.26238e-06 -0.000445483 -8.10348e-05 -9.84366e-19 
0.000202473 -1.04591e-10 -1.28171e-09 -8.60876e-10 -1.36844e-05 -0.000167695 -0.000112635 -5.65095e-17 
0.000786208 -3.27761e-10 -5.32236e-09 -2.93116e-09 -4.23485e-05 -0.000687677 -0.000378721 2.23219e-16 
0.000421281 -1.64368e-10 -3.72796e-09 -2.17586e-09 -1.60303e-05 -0.000363578 -0.000212206 0 
0 0 0 0 0 0 0 0 
0.00021371 -6.99897e-11 -2.09477e-09 -8.35736e-10 -6.62885e-06 -0.0001984 -7.91541e-05 4.09067e-17 
9.90263e-05 -3.81527e-11 -8.97811e-10 -4.77554e-10 -3.71266e-06 -8.73663e-05 -4.6471e-05 -1.05073e-17 
0 0 0 0 0 0 0 0 
0.000551568 -1.54092e-10 -4.82979e-09 -6.26372e-11 -7.16133e-06 -0.000541788 -0.000103161 -0.0671863 
0.000350891 -2.62963e-09 -5.8066e-09 -6.8156e-10 -2.7289e-06 -0.000344274 -6.77685e-05 0.447302 
0.00101166 -1.13633e-09 -2.389e-08 -6.1036e-10 -2.78389e-08 -0.00101157 -1.36913e-05 0.0162584 
0 0 0 0 0 0 0 0 
0 0 0 0 0 0 0 0 
0.00011279 -4.79195e-10 -2.86029e-09 6.63466e-10 -1.34903e-07 -0.000112349 -9.96396e-06 0.00297086 
0.000685505 0 -5.14128e-09 3.27321e-11 8.52435e-23 -0.000685491 4.36419e-06 1.00776e-16 
0.000393693 -2.33278e-11 -1.09838e-08 8.54951e-10 -8.33616e-07 -0.000392504 3.05516e-05 3.97912e-17 
0.000290688 -3.39681e-11 -2.68888e-09 4.80715e-10 -3.61461e-06 -0.000286129 5.11538e-05 -1.149e-17 
0.00179448 -4.74147e-10 -1.69675e-08 7.37719e-09 -4.5972e-05 -0.00164513 0.000715272 -3.35012e-16 
2.08953e-05 -5.98614e-12 -2.93435e-10 1.13874e-10 -3.97321e-07 -1.94763e-05 7.55822e-06 0 
0 0 0 0 0 0 0 0 
0 0 0 0 0 0 0 0 
0.000741948 -1.66846e-10 -1.20187e-08 2.75807e-09 -1.0038e-05 -0.000723085 0.000165934 -2.50105e-16 
0.000194175 -5.55039e-11 -1.79973e-09 8.68151e-10 -5.39157e-06 -0.000174824 8.43311e-05 0 
0.000277003 -9.19514e-11 -2.61329e-09 1.20955e-09 -8.84065e-06 -0.000251254 0.000116292 1.81675e-17 
0.000138496 6.66193e-10 -9.22364e-10 4.04528e-10 -4.90505e-06 -0.000129149 4.97739e-05 0.0362005 
0 0 0 0 0 0 0 0 
0.00158789 -6.44067e-09 -1.04023e-08 6.6517e-09 -7.41886e-05 -0.00144628 0.000651293 2.17648 
0.000208989 -8.39114e-10 -1.06055e-09 1.45349e-09 -1.22958e-05 -0.000187778 9.091e-05 0.04944 
0.000323813 -3.45979e-09 -9.08481e-09 6.99361e-11 -7.96698e-07 -0.000322077 3.34761e-05 0.143874 
2.01153e-05 -3.80932e-12 -2.34282e-10 8.37546e-11 -3.07942e-07 -1.89391e-05 6.77063e-06 1.09109e-18 
0.000501428 -1.0582e-09 -2.67342e-09 1.56113e-09 -2.83499e-05 -0.000383886 0.000321338 -0.0153612 
0.00453235 -1.0135e-09 -6.07817e-09 1.69262e-08 -0.000255012 -0.00152936 0.0042589 8.69396e-16 
0.000200895 -5.83375e-11 -4.95481e-10 1.56106e-09 -7.15121e-06 -6.07377e-05 0.00019136 -2.11778e-16 
0.00163994 -4.16636e-09 -6.38165e-09 1.47744e-08 -4.08426e-05 -0.000384738 0.00159365 1.85105 
0.00015171 -9.08198e-10 -6.68555e-10 2.90057e-09 -1.04254e-06 -1.41094e-05 0.000151048 0.015295 
0.000120933 -4.66823e-13 -5.77441e-12 9.06996e-10 -6.22418e-08 -7.69906e-07 0.00012093 0 
0.000359262 -9.15716e-11 -6.40926e-10 1.23496e-09 -2.35934e-05 -0.000165135 0.000318187 1.39101e-17 
0 0 0 0 0 0 0 0 
0.00114973 -3.79071e-10 -3.61612e-09 7.07655e-09 -5.47802e-05 -0.000522573 0.00102264 -4.99325e-16 
0.0008114 -2.95932e-10 -2.36953e-09 6.01735e-09 -3.70906e-05 -0.000296985 0.000754184 2.16532e-16 
0.000334019 -1.07776e-10 -9.88053e-10 2.46004e-09 -1.3568e-05 -0.000124387 0.000309698 0 
0.0016804 -3.95386e-10 -6.25505e-09 1.64451e-08 -3.77527e-05 -0.000597251 0.00157023 1.97951e-15 
0.000279536 -1.66056e-11 -8.14385e-10 2.83776e-09 -6.08233e-06 -8.7445e-05 0.000265436 0.0209293 
0.000883909 -1.31353e-09 -2.9158e-09 9.30553e-09 -1.52343e-05 -0.000224511 0.000854785 -0.0229594 
0.000167691 4.5078e-10 -1.03396e-09 2.78387e-09 -8.44727e-07 -2.17808e-05 0.000166268 -0.00481422 
0 0 0 0 0 0 0 0 
0.00107861 -3.17472e-10 -2.67389e-09 1.346e-08 -2.4946e-05 -0.000210107 0.00105765 -9.5875e-16 
9.55868e-05 -8.78662e-12 -3.92078e-10 2.33251e-09 -3.55094e-07 -1.58451e-05 9.42637e-05 8.72734e-18 
0.000189801 -4.55203e-11 -9.44523e-10 2.14917e-09 -3.67963e-06 -7.63505e-05 0.000173728 1.30925e-17 
0.000564583 1.82405e-10 9.03149e-10 2.45625e-09 -2.75423e-05 0.000165536 0.000539067 -0.0323056 
0.000855141 -3.29291e-09 3.8378e-09 1.33309e-08 -6.05833e-06 0.00016844 0.000838365 0.376573 
0.000212366 -5.19866e-11 4.74474e-10 2.67466e-09 -4.06348e-06 3.70868e-05 0.000209063 -2.48977e-16 
0.00160326 -8.96119e-10 4.5626e-09 1.98804e-08 -3.70801e-05 0.000312306 0.00157211 -0.0520089 
6.06507e-05 -2.59393e-11 3.13253e-10 5.36705e-10 -2.52943e-06 3.05463e-05 5.23358e-05 -6.58073e-19 
0 0 0 0 0 0 0 0 
0 0 0 0 0 0 0 0 
0.000103133 -1.55516e-11 3.90094e-10 1.6212e-09 -9.61824e-07 2.41263e-05 0.000100267 -1.00171e-17 
0.000299464 -2.81983e-09 2.16383e-10 5.032e-09 -4.18372e-06 7.60671e-05 0.000289611 0.284039 
0.00035914 -1.17618e-10 1.40446e-09 3.52028e-09 -1.11398e-05 0.000133019 0.000333412 1.02267e-17 
5.5517e-05 -1.75379e-11 1.26949e-10 4.38523e-10 -2.13116e-06 1.54265e-05 5.3288e-05 -8.20064e-19 
0.00131664 -5.88317e-10 7.2381e-09 1.13456e-08 -5.7503e-05 0.000707463 0.00110894 -3.37722e-16 
0.000244064 1.36505e-09 3.20874e-10 2.0358e-09 -1.11566e-05 8.93309e-05 0.000226854 0.0702715 
0.00066962 -5.19872e-10 1.97083e-09 4.9025e-09 -3.86191e-05 0.000260048 0.000615853 -0.00428753 
0.000274451 -2.93835e-11 1.28154e-09 7.98016e-09 -9.97758e-07 4.35167e-05 0.000270978 5.86641e-17 
0.000818097 -1.98266e-10 1.86768e-09 7.73621e-09 -2.03746e-05 0.00019193 0.000795003 1.66442e-17 
0.000556452 -1.41835e-10 9.92715e-10 1.91279e-09 -3.65439e-05 0.000255774 0.000492832 0 
0.000266784 -1.17417e-08 -2.23072e-09 -8.00626e-08 0 0 -0.000266784 0.0566509 
0 0 0 0 0 0 0 0 
0.000320346 -1.02876e-09 8.49386e-09 6.85632e-10 0 0.000318478 3.45462e-05 -0.00722094 
0.000578787 -5.23442e-09 1.12007e-08 1.05734e-08 0 0.000436621 0.000379943 0.301912 
0.00119111 0 2.6797e-08 2.85718e-08 0 0.000814822 0.000868791 -1.32973e-16 
0.000327 0 1.05191e-08 2.23539e-09 0 0.000319857 6.79721e-05 0 
0.000907407 -3.48928e-09 3.92166e-09 -2.9594e-08 0 0.000143421 -0.000896001 0.250067 
0.000623179 -1.96079e-09 1.36829e-08 -1.5276e-08 0 0.000432371 -0.000448785 0.297804 
0.000396953 0 1.28047e-08 -2.54203e-09 0 0.000389354 -7.7296e-05 5.74573e-18 