ITEM: TIMESTEP
20
ITEM: NUMBER OF SURFS
6916
ITEM: BOX BOUNDS oo rr rr
-0.35 0.35
-0.25 0.25
-0.25 0.25
ITEM: SURFS f_save[1] f_save[2] f_save[3] f_save[4] f_save[5] f_save[6] f_save[7] f_save[8] 
0 0 0 0 0 0 0 0 
0 0 0 0 0 0 0 0 
0 0 0 0 0 0 0 0 
0 0 0 0 0 0 0 0 
0 0 0 0 0 0 0 0 
0 0 0 0 0 0 0 0 
0 0 0 0 0 0 0 0 
0 0 0 0 0 0 0 0 
0.0827179 -1.96455e-07 0 0 -0.0827179 0 0 0 
0 0 0 0 0 0 0 0 
0 0 0 0 0 0 0 0 
0 0 0 0 0 0 0 0 
0 0 0 0 0 0 0 0 
0 0 0 0 0 0 0 0 
0 0 0 0 0 0 0 0 
0 0 0 0 0 0 0 0 
0 0 0 0 0 0 0 0 
0.110035 -2.61333e-07 0 0 -0.110035 0 0 0 
0 0 0 0 0 0 0 0 
0 0 0 0 0 0 0 0 
0 0 0 0 0 0 0 0 
0 0 0 0 0 0 0 0 
0 0 0 0 0 0 0 0 
0 0 0 0 0 0 0 0 
0 0 0 0 0 0 0 0 
0 0 0 0 0 0 0 0 
0 0 0 0 0 0 0 0 
0.053797 -1.27768e-07 0 0 -0.053797 0 0 0 
0 0 0 0 0 0 0 0 
0 0 0 0 0 0 0 0 
0 0 0 0 0 0 0 0 
0.00698928 -6.01079e-07 0 0 -0.00698928 0 0 0 
0 0 0 0 0 0 0 0 
0 0 0 0 0 0 0 0 
0 0 0 0 0 0 0 0 
0 0 0 0 0 0 0 0 
0 0 0 0 0 0 0 0 
0.0201135 2.45133e-08 0 0 0.0201135 0 0 0 
0 0 0 0 0 0 0 0 
0 0 0 0 0 0 0 0 
0 0 0 0 0 0 0 0 
0 0 0 0 0 0 0 0 
0 0 0 0 0 0 0 0 
0 0 0 0 0 0 0 0 
0 0 0 0 0 0 0 0 
0 0 0 0 0 0 0 0 
0 0 0 0 0 0 0 0 
0 0 0 0 0 0 0 0 
0 0 0 0 0 0 0 0 
0 0 0 0 0 0 0 0 
0 0 0 0 0 0 0 0 
0 0 0 0 0 0 0 0 
0 0 0 0 0 0 0 0 
0 0 0 0 0 0 0 0 
0 0 0 0 0 0 0 0 
0 0 0 0 0 0 0 0 
0 0 0 0 0 0 0 0 
0 0 0 0 0 0 0 0 
0 0 0 0 0 0 0 0 
0 0 0 0 0 0 0 0 
0 0 0 0 0 0 0 0 
0 0 0 0 0 0 0 0 
1.52346e-05 -3.91435e-07 3.14201e-07 3.03061e-07 0 1.07725e-05 1.07725e-05 0.0241528 
9.04023e-06 -6.71435e-08 -7.90631e-08 -8.58611e-08 0 -6.39241e-06 -6.39241e-06 0.00873496 
0.000116015 -4.81025e-09 6.61285e-08 1.53512e-08 0 0.000116015 0 -0.00424912 
0.000496191 -6.85055e-08 -2.82829e-07 -2.17685e-08 0 -0.000496191 0 0.291586 
0.000412856 -1.47328e-08 2.35328e-07 1.63893e-08 0 0.000412856 0 0.0033235 
0.00011459 1.56454e-08 -6.53164e-08 -3.07844e-09 0 -0.00011459 0 0.00818937 
0.000257417 -4.59953e-09 1.46728e-07 4.76902e-09 0 0.000257417 0 -0.00481251 
0.000216441 6.66382e-09 -1.05819e-09 1.23371e-07 0 0 0.000216441 -0.00442878 
7.20701e-05 0 0 4.2161e-08 0 0 7.20701e-05 0 
0.000448959 1.65615e-08 -1.90022e-08 -2.62641e-07 0 0 -0.000448959 -0.00136846 
0 0 0 0 0 0 0 0 
3.02371e-05 0 1.72351e-08 0 0 3.02371e-05 0 0 
0 0 0 0 0 0 0 0 
2.68813e-05 0 0 -1.53223e-08 0 0 -2.68813e-05 0 
2.61277e-05 0 1.48928e-08 0 0 2.61277e-05 0 3.03093e-18 
0.000173283 -1.23058e-09 -9.87712e-08 -1.20397e-08 0 -0.000173283 0 -0.0025329 
0.0017875 -2.88358e-08 -6.29071e-08 1.01888e-06 0 0 0.0017875 0.168251 
7.87434e-05 2.57446e-08 -3.20212e-08 4.48837e-08 0 0 7.87434e-05 0.0127079 
6.80428e-05 -7.58752e-09 7.63318e-09 -3.87844e-08 0 0 -6.80428e-05 0.00522917 
0 0 0 0 0 0 0 0 
0.000302789 4.52331e-09 1.7259e-07 -3.28126e-09 0 0.000302789 0 0.00908212 
0 0 0 0 0 0 0 0 
0.000431617 1.28376e-08 2.52496e-07 -1.0503e-08 0 0.000431617 0 -0.0156265 
0.000373996 -1.15659e-08 -8.23689e-09 2.18788e-07 0 0 0.000373996 0.00692084 
0.00083527 -1.57992e-08 -4.88633e-07 -2.12415e-08 0 -0.00083527 0 0.0313557 
0.000430367 -1.39917e-08 9.7459e-09 -2.45309e-07 0 0 -0.000430367 -0.0109277 
0.000760039 -8.02729e-09 -4.44623e-07 2.86241e-09 0 -0.000760039 0 -0.00355991 
7.39133e-05 7.14199e-09 2.80766e-08 4.32393e-08 0 0 7.39133e-05 -0.030157 
7.31708e-05 9.14912e-09 -8.85841e-09 -4.17074e-08 0 0 -7.31708e-05 0.00130023 
9.95523e-05 0 -5.82381e-08 0 0 -9.95523e-05 0 0 
0 0 0 0 0 0 0 0 
0.000199004 -2.026e-09 4.44927e-09 5.82087e-08 0 0 0.000199004 -0.00671871 
1.81836e-05 0 0 1.03647e-08 0 0 1.81836e-05 2.27319e-18 
0.000249869 5.38213e-09 2.1652e-09 -1.42425e-07 0 0 -0.000249869 -0.0116493 
6.79824e-05 0 0 3.875e-08 0 0 6.79824e-05 0 
7.06851e-05 -6.78946e-10 -4.02905e-08 -6.19515e-09 0 -7.06851e-05 0 -0.00270915 
0.000159571 2.45785e-08 4.09533e-09 -9.09554e-08 0 3.12877e-11 -0.000159571 -0.000277069 
6.03151e-05 0 -3.43796e-08 0 0 -6.03151e-05 0 0 
0.000301384 -2.68098e-09 -1.71789e-07 2.77136e-08 0 -0.000301384 0 0.00163815 
0 0 0 0 0 0 0 0 
0.000319123 -5.02225e-08 1.819e-07 4.36221e-08 0 0.000319123 0 0.185997 
2.7392e-05 0 0 -1.56134e-08 0 0 -2.7392e-05 0 
0.000102446 0 -5.8394e-08 0 0 -0.000102446 0 0 
0.000229112 5.36571e-09 -9.35711e-09 -1.30594e-07 0 0 -0.000229112 -0.00886738 
0.000641175 -8.69078e-11 4.56837e-08 0 -1.21976e-06 0.000641174 0 -7.27421e-17 
0 0 0 0 0 0 0 0 
0 0 0 0 0 0 0 0 
0 0 0 0 0 0 0 0 
0 0 0 0 0 0 0 0 
0 0 0 0 0 0 0 0 
0 0 0 0 0 0 0 0 
0.000964111 5.78898e-10 1.79905e-08 -6.88908e-09 -3.68954e-05 0.000963216 1.90643e-05 -0.264939 
0 0 0 0 0 0 0 0 
0.000393755 -7.37967e-09 2.80515e-08 -2.04492e-08 -1.87562e-07 0.000393755 0 -0.0143739 
0.000131357 -1.78047e-11 0 9.35917e-09 -2.4989e-07 0 0.000131356 -9.09276e-18 
0.000617174 -2.04038e-08 1.47017e-08 9.1858e-09 -4.18589e-05 2.80036e-05 0.000615116 0.0595284 
0 0 0 0 0 0 0 0 
0 0 0 0 0 0 0 0 
0 0 0 0 0 0 0 0 
0 0 0 0 0 0 0 0 
0 0 0 0 0 0 0 0 
0 0 0 0 0 0 0 0 
0 0 0 0 0 0 0 0 
0 0 0 0 0 0 0 0 
0 0 0 0 0 0 0 0 
0.000323472 -3.98349e-10 -5.85373e-09 2.66495e-10 -2.1939e-05 -0.000322393 1.46772e-05 2.37872e-17 
0 0 0 0 0 0 0 0 
0.000402389 -2.24953e-10 -7.23673e-09 3.8063e-10 -1.2485e-05 -0.00040164 2.1125e-05 2.39709e-17 
0 0 0 0 0 0 0 0 
0 0 0 0 0 0 0 0 
0.00141184 -1.7997e-11 -3.40111e-08 -4.5304e-10 -7.47007e-07 -0.00141171 -1.88045e-05 1.07564e-16 
0 0 0 0 0 0 0 0 
0 0 0 0 0 0 0 0 
0.000645584 -2.19106e-11 -4.59978e-08 0 -3.07518e-07 -0.000645583 0 2.42474e-17 
0.000809284 -1.09694e-10 0 -5.76615e-08 -1.53956e-06 0 -0.000809283 -6.36493e-17 
0 0 0 0 0 0 0 0 
0 0 0 0 0 0 0 0 
0.000565601 -2.59531e-09 4.51723e-09 -1.03669e-08 -1.75489e-05 -2.96935e-05 -0.000564548 -0.00784636 
0 0 0 0 0 0 0 0 
0 0 0 0 0 0 0 0 
0.000845654 -1.48949e-07 1.39718e-08 -2.01104e-08 -4.47438e-07 1.12634e-05 -0.000845578 12.324 
0.00111762 -7.90329e-10 4.08372e-10 -2.06329e-08 -4.27699e-05 2.20998e-05 -0.00111658 -7.01201e-17 
0 0 0 0 0 0 0 0 
0.000368046 -1.24912e-11 0 -2.62233e-08 -1.75315e-07 0 -0.000368046 7.75917e-16 
0 0 0 0 0 0 0 0 
0 0 0 0 0 0 0 0 
0 0 0 0 0 0 0 0 
0 0 0 0 0 0 0 0 
0 0 0 0 0 0 0 0 
0 0 0 0 0 0 0 0 
0 0 0 0 0 0 0 0 
0 0 0 0 0 0 0 0 
0 0 0 0 0 0 0 0 
0 0 0 0 0 0 0 0 
0 0 0 0 0 0 0 0 
0 0 0 0 0 0 0 0 
0 0 0 0 0 0 0 0 
0 0 0 0 0 0 0 0 
0 0 0 0 0 0 0 0 
0 0 0 0 0 0 0 0 
0 0 0 0 0 0 0 0 
0 0 0 0 0 0 0 0 
0 0 0 0 0 0 0 0 
0.000836767 -2.68954e-09 1.42975e-08 -1.18631e-09 -0.000154181 0.000819623 -6.80063e-05 0 
0.00219265 -8.22943e-09 4.11293e-08 -4.75672e-09 -0.000427454 0.00213634 -0.000247074 -2.6921e-16 
0.00343701 -5.77633e-09 2.35871e-08 -2.73868e-09 -0.000812393 0.00331733 -0.000385173 4.85954e-16 
0 0 0 0 0 0 0 0 
0 0 0 0 0 0 0 0 
0 0 0 0 0 0 0 0 
0 0 0 0 0 0 0 0 
0 0 0 0 0 0 0 0 
0 0 0 0 0 0 0 0 
0 0 0 0 0 0 0 0 
0 0 0 0 0 0 0 0 
0 0 0 0 0 0 0 0 
0 0 0 0 0 0 0 0 
0 0 0 0 0 0 0 0 
0.00265824 -7.45331e-09 3.49032e-08 4.32016e-09 -0.000551107 0.00258079 0.000319438 -1.91615e-16 
0 0 0 0 0 0 0 0 
0 0 0 0 0 0 0 0 
0 0 0 0 0 0 0 0 
0 0 0 0 0 0 0 0 
0.00307521 -2.66841e-08 8.02261e-09 3.22319e-08 -0.000553913 0.000281331 0.0030118 -0.405476 
0 0 0 0 0 0 0 0 
0.0025203 -8.04723e-09 2.90216e-09 4.33237e-08 -0.00045927 0.000165632 0.00247256 1.57758e-15 
0 0 0 0 0 0 0 0 
0 0 0 0 0 0 0 0 
0 0 0 0 0 0 0 0 
0 0 0 0 0 0 0 0 
0 0 0 0 0 0 0 0 
0 0 0 0 0 0 0 0 
0.00674719 -1.61225e-08 1.86314e-08 6.33764e-08 -0.0015998 0.00184874 0.00628867 -5.4857e-15 
0 0 0 0 0 0 0 0 
0 0 0 0 0 0 0 0 
0.0069193 -1.17038e-08 -5.78999e-09 4.75644e-08 -0.00164183 -0.000812233 0.00667244 1.95399e-15 
0 0 0 0 0 0 0 0 
0.0029106 -4.47886e-09 -1.57523e-09 1.94168e-08 -0.000652172 -0.000229372 0.00282731 6.28905e-17 
0.00167353 -4.3856e-09 -4.46933e-09 1.73807e-08 -0.00039728 -0.000404864 0.00157447 -2.34752e-16 
0.000497591 -1.15747e-09 -1.1066e-09 5.32994e-09 -0.000103489 -9.89409e-05 0.000476547 3.86166e-17 
0 0 0 0 0 0 0 0 
0 0 0 0 0 0 0 0 
0.000792042 -9.57164e-09 -5.90504e-10 5.42881e-08 -0.000137517 -8.48387e-06 0.000779967 5.27449e-17 
0 0 0 0 0 0 0 0 
0.000341706 -1.10146e-08 -6.72046e-09 -1.96507e-08 -5.96e-05 -0.000336346 9.03224e-06 0.243383 
0 0 0 0 0 0 0 0 
0 0 0 0 0 0 0 0 
0.000583652 -1.87598e-09 -9.97266e-09 8.27458e-10 -0.000107543 -0.000571694 4.7435e-05 -7.42787e-17 
0.00299111 -9.54237e-10 -5.82644e-08 5.60255e-09 -0.000583112 -0.0029143 0.000337047 0.0163802 
0 0 0 0 0 0 0 0 
0 0 0 0 0 0 0 0 
0 0 0 0 0 0 0 0 
0.00162532 -4.46734e-09 -1.82113e-08 4.00936e-09 -0.000378661 -0.00154363 0.000339843 -9.15235e-17 
0 0 0 0 0 0 0 0 
0.00607332 -1.72701e-08 -6.81381e-08 1.58773e-08 -0.00145548 -0.0057425 0.0013381 0 
0 0 0 0 0 0 0 0 
0 0 0 0 0 0 0 0 
0.00147591 3.14004e-09 -3.52706e-08 -9.9966e-09 -0.000260069 -0.00145179 -5.45506e-05 0.204102 
0 0 0 0 0 0 0 0 
0 0 0 0 0 0 0 0 
0.000839621 -2.41896e-09 -1.02146e-08 -1.71468e-09 -0.000190952 -0.000806337 -0.000135356 3.40947e-17 
0 0 0 0 0 0 0 0 
0 0 0 0 0 0 0 0 
0 0 0 0 0 0 0 0 
0 0 0 0 0 0 0 0 
0 0 0 0 0 0 0 0 
0 0 0 0 0 0 0 0 
0 0 0 0 0 0 0 0 
0 0 0 0 0 0 0 0 
0 0 0 0 0 0 0 0 
0 0 0 0 0 0 0 0 
0.00172264 -5.23597e-09 -1.98118e-09 -2.45988e-08 -0.00035753 -0.000135282 -0.00167969 2.94921e-17 
0 0 0 0 0 0 0 0 
0 0 0 0 0 0 0 0 
0.00216246 -7.39599e-09 -1.53742e-09 -4.0625e-08 -0.000387053 -8.04572e-05 -0.00212602 -1.80823e-16 
0 0 0 0 0 0 0 0 
0 0 0 0 0 0 0 0 
0 0 0 0 0 0 0 0 
0.00410845 -6.94929e-09 3.4379e-09 -2.82421e-08 -0.000974863 0.000482276 -0.00396187 0 
0.00221021 -4.04529e-09 4.85005e-09 -1.57942e-08 -0.000525626 0.000630192 -0.00205222 -1.1224e-16 
0 0 0 0 0 0 0 0 
0 0 0 0 0 0 0 0 
0 0 0 0 0 0 0 0 
0.00193027 1.75841e-09 5.08266e-09 -2.1392e-08 -0.000383173 0.000159957 -0.00188508 -0.202789 
0.0015897 1.47636e-08 2.86524e-09 -3.09883e-08 -0.000307791 0.000153507 -0.00155204 -0.14793 
0 0 0 0 0 0 0 0 
0.00212802 -9.12018e-09 3.66459e-09 -5.04767e-08 -0.000377404 0.000151645 -0.00208879 2.14474e-16 
0 0 0 0 0 0 0 0 
0 0 0 0 0 0 0 0 
0 0 0 0 0 0 0 0 
0 0 0 0 0 0 0 0 
0 0 0 0 0 0 0 0 
0 0 0 0 0 0 0 0 
0 0 0 0 0 0 0 0 
0 0 0 0 0 0 0 0 
0 0 0 0 0 0 0 0 
0 0 0 0 0 0 0 0 
0 0 0 0 0 0 0 0 
0 0 0 0 0 0 0 0 
0 0 0 0 0 0 0 0 
0 0 0 0 0 0 0 0 
0 0 0 0 0 0 0 0 
0 0 0 0 0 0 0 0 
0 0 0 0 0 0 0 0 
0 0 0 0 0 0 0 0 
0 0 0 0 0 0 0 0 
0 0 0 0 0 0 0 0 
0.000762063 -2.03186e-10 8.21461e-09 -1.9481e-09 -1.83354e-05 0.000741282 -0.000175796 0 
0.00265231 -5.87639e-10 2.88727e-08 -6.17383e-09 -5.2778e-05 0.00259317 -0.000554495 2.32747e-16 
0 0 0 0 0 0 0 0 
0 0 0 0 0 0 0 0 
0 0 0 0 0 0 0 0 
0 0 0 0 0 0 0 0 
0 0 0 0 0 0 0 0 
0 0 0 0 0 0 0 0 
0.00183457 -8.19741e-10 1.58086e-08 -1.00853e-08 -8.01228e-05 0.00154516 -0.000985756 -8.44306e-17 
0 0 0 0 0 0 0 0 
0 0 0 0 0 0 0 0 
0.00272427 -6.24846e-10 1.03925e-08 -3.78922e-09 -0.000153641 0.00255538 -0.000931717 0 
0 0 0 0 0 0 0 0 
0 0 0 0 0 0 0 0 
0 0 0 0 0 0 0 0 
0 0 0 0 0 0 0 0 
0.0465449 -2.34483e-09 1.3662e-08 -4.57647e-08 -0.0022824 0.0132983 -0.0445463 2.52245e-15 
0 0 0 0 0 0 0 0 
0 0 0 0 0 0 0 0 
0 0 0 0 0 0 0 0 
0.0177458 -4.10008e-09 2.76085e-08 -6.53834e-08 -0.00102346 0.00689161 -0.0163209 8.08591e-16 
0 0 0 0 0 0 0 0 
0 0 0 0 0 0 0 0 
0 0 0 0 0 0 0 0 
0 0 0 0 0 0 0 0 
0 0 0 0 0 0 0 0 
0 0 0 0 0 0 0 0 
0.000571224 -1.01157e-10 2.12343e-09 -9.25317e-09 -6.08615e-06 0.000127757 -0.000556721 -5.19718e-17 
0 0 0 0 0 0 0 0 
0 0 0 0 0 0 0 0 
0.00210587 -1.58107e-08 1.43534e-08 -3.07557e-08 -3.25079e-05 0.000646398 -0.00200394 0.014178 
0 0 0 0 0 0 0 0 
0 0 0 0 0 0 0 0 
0 0 0 0 0 0 0 0 
0 0 0 0 0 0 0 0 
0.000983692 -2.20825e-10 -2.63789e-09 -1.03986e-08 -2.0244e-05 -0.000241827 -0.000953289 -7.91896e-17 
0 0 0 0 0 0 0 0 
0.00242402 -5.24405e-10 -5.07618e-09 -1.16665e-08 -9.98261e-05 -0.000966305 -0.00222084 0 
0 0 0 0 0 0 0 0 
0 0 0 0 0 0 0 0 
0.00123257 -2.71707e-10 -3.78058e-09 -2.07835e-08 -1.58522e-05 -0.000220571 -0.00121257 -2.26789e-16 
0.000597525 -1.68433e-10 -2.41897e-09 -5.74655e-09 -1.61359e-05 -0.000231738 -0.000550521 0 
0 0 0 0 0 0 0 0 
0.00164972 -3.26895e-10 3.75459e-09 -1.57354e-08 -6.74592e-05 -0.000634982 -0.00152112 -0.968433 
0.00131731 -3.61033e-09 -2.57137e-09 -8.83917e-09 -6.47815e-05 -0.000713658 -0.00110536 -0.0342188 
0 0 0 0 0 0 0 0 
0 0 0 0 0 0 0 0 
0 0 0 0 0 0 0 0 
0 0 0 0 0 0 0 0 
0 0 0 0 0 0 0 0 
0 0 0 0 0 0 0 0 
0 0 0 0 0 0 0 0 
0 0 0 0 0 0 0 0 
0.00166741 -2.69009e-10 -2.81156e-08 -5.11431e-09 -1.56955e-05 -0.00164041 -0.000298396 -5.03995e-17 
0 0 0 0 0 0 0 0 
0 0 0 0 0 0 0 0 
0 0 0 0 0 0 0 0 
0 0 0 0 0 0 0 0 
0 0 0 0 0 0 0 0 
0 0 0 0 0 0 0 0 
0 0 0 0 0 0 0 0 
0 0 0 0 0 0 0 0 
0 0 0 0 0 0 0 0 
0.00146349 -9.5126e-13 -3.45654e-08 -4.67833e-10 -4.02724e-08 -0.00146335 -1.98061e-05 -1.82851e-16 
0 0 0 0 0 0 0 0 
0 0 0 0 0 0 0 0 
0 0 0 0 0 0 0 0 
0 0 0 0 0 0 0 0 
0.00114972 -6.81251e-11 -3.20764e-08 2.49675e-09 -2.43444e-06 -0.00114625 8.9221e-05 1.54342e-16 
0 0 0 0 0 0 0 0 
0 0 0 0 0 0 0 0 
0 0 0 0 0 0 0 0 
0 0 0 0 0 0 0 0 
0 0 0 0 0 0 0 0 
0 0 0 0 0 0 0 0 
0 0 0 0 0 0 0 0 
0 0 0 0 0 0 0 0 
0 0 0 0 0 0 0 0 
0 0 0 0 0 0 0 0 
0 0 0 0 0 0 0 0 
0 0 0 0 0 0 0 0 
0 0 0 0 0 0 0 0 
0 0 0 0 0 0 0 0 
0 0 0 0 0 0 0 0 
0 0 0 0 0 0 0 0 
0 0 0 0 0 0 0 0 
0 0 0 0 0 0 0 0 
0 0 0 0 0 0 0 0 
0 0 0 0 0 0 0 0 
0 0 0 0 0 0 0 0 
0 0 0 0 0 0 0 0 
0 0 0 0 0 0 0 0 
0 0 0 0 0 0 0 0 
0 0 0 0 0 0 0 0 
0 0 0 0 0 0 0 0 
0 0 0 0 0 0 0 0 
0 0 0 0 0 0 0 0 
0 0 0 0 0 0 0 0 
0 0 0 0 0 0 0 0 
0 0 0 0 0 0 0 0 
0 0 0 0 0 0 0 0 
0 0 0 0 0 0 0 0 
0 0 0 0 0 0 0 0 
0 0 0 0 0 0 0 0 
0 0 0 0 0 0 0 0 
0 0 0 0 0 0 0 0 
0.000970412 -4.15029e-10 5.01205e-09 8.58728e-09 -4.04708e-05 0.000488741 0.000837373 -1.05292e-17 
0 0 0 0 0 0 0 0 
0 0 0 0 0 0 0 0 
0 0 0 0 0 0 0 0 
0 0 0 0 0 0 0 0 
0.000962719 -3.1529e-10 3.76483e-09 9.43654e-09 -2.98617e-05 0.000356573 0.000893751 0 
0 0 0 0 0 0 0 0 
0.00956659 -4.27464e-09 5.25912e-08 8.24358e-08 -0.00041781 0.00514035 0.00805741 0 
0 0 0 0 0 0 0 0 
0.000474124 -3.63999e-09 3.34569e-11 3.84114e-09 -2.73442e-05 0.000184126 0.000436054 -0.0686004 
0 0 0 0 0 0 0 0 
0 0 0 0 0 0 0 0 
0 0 0 0 0 0 0 0 
0.000202515 5.78353e-09 1.38338e-08 -6.07753e-08 0 0 -0.000202515 0.030686 
0 0 0 0 0 0 0 0 
0 0 0 0 0 0 0 0 
0.00109478 0 2.19605e-08 1.91099e-08 0 0.000825869 0.000718664 1.29942e-16 
0.000419913 0 9.44701e-09 1.00727e-08 0 0.000287257 0.000306284 0 
0.00110139 0 3.54302e-08 7.52917e-09 0 0.00107733 0.000228941 0 
0.00535426 0 2.78313e-08 -1.73872e-07 0 0.000846272 -0.00528696 1.68104e-15 
0.00471698 0 1.07629e-07 -1.11715e-07 0 0.00327271 -0.00339696 0 
0.00162057 0 5.22752e-08 -1.03779e-08 0 0.00158955 -0.000315562 0 
0 0 0 0 0 0 0 0 
0.000737132 0 1.72015e-08 -9.39721e-09 0 0.000646895 -0.0003534 0 
0 0 0 0 0 0 0 0 
0 0 0 0 0 0 0 0 
0 0 0 0 0 0 0 0 
0 0 0 0 0 0 0 0 
0.00134365 0 -3.02289e-08 -3.22311e-08 0 -0.000919179 -0.00098006 -7.87986e-17 
0.000229199 -8.16046e-10 -7.06994e-09 -2.99299e-09 0 -0.000224193 -4.76427e-05 0.017243 
0 0 0 0 0 0 0 0 
0 0 0 0 0 0 0 0 
0.00360254 0 -1.16209e-07 2.30701e-08 0 -0.00353358 0.000701499 6.56655e-18 
0.00243096 -9.6666e-08 -4.54409e-09 6.73878e-08 0 -0.000859561 0.00227393 6.19796 
0.000875704 0 -1.92008e-08 1.31739e-08 0 -0.000722085 0.000495429 -3.24854e-17 
0 0 0 0 0 0 0 0 
0 0 0 0 0 0 0 0 
0 0 0 0 0 0 0 0 
0 0 0 0 0 0 0 0 
0.000207592 -2.3627e-09 5.93297e-10 4.05439e-09 -0.000103696 2.60391e-05 0.000177943 4.73898e-18 
0.00770849 -7.49547e-08 -1.33388e-07 8.85731e-08 -0.00385053 -0.0058604 0.00320155 0.128477 
0.00149316 -1.69944e-08 -2.22335e-08 -1.93474e-08 -0.000745863 -0.000975804 -0.000849136 3.79118e-17 
0 0 0 0 0 0 0 0 
0 0 0 0 0 0 0 0 
0 0 0 0 0 0 0 0 
0 0 0 0 0 0 0 0 
0 0 0 0 0 0 0 0 
0 0 0 0 0 0 0 0 
0 0 0 0 0 0 0 0 
0 0 0 0 0 0 0 0 
0 0 0 0 0 0 0 0 
0 0 0 0 0 0 0 0 
0 0 0 0 0 0 0 0 
0 0 0 0 0 0 0 0 
0 0 0 0 0 0 0 0 
0 0 0 0 0 0 0 0 
0 0 0 0 0 0 0 0 
0 0 0 0 0 0 0 0 
0 0 0 0 0 0 0 0 
0 0 0 0 0 0 0 0 
0 0 0 0 0 0 0 0 
0 0 0 0 0 0 0 0 
0 0 0 0 0 0 0 0 
0 0 0 0 0 0 0 0 
0 0 0 0 0 0 0 0 
0 0 0 0 0 0 0 0 
0.00463291 7.44678e-10 4.91699e-09 1.04489e-09 0.000678919 0.00448279 0.000952625 3.93767e-16 
0 0 0 0 0 0 0 0 
0 0 0 0 0 0 0 0 
0 0 0 0 0 0 0 0 
0 0 0 0 0 0 0 0 
0 0 0 0 0 0 0 0 
0 0 0 0 0 0 0 0 
0 0 0 0 0 0 0 0 
0 0 0 0 0 0 0 0 
0 0 0 0 0 0 0 0 
0 0 0 0 0 0 0 0 
0 0 0 0 0 0 0 0 
0 0 0 0 0 0 0 0 
0 0 0 0 0 0 0 0 
0 0 0 0 0 0 0 0 
0 0 0 0 0 0 0 0 
0 0 0 0 0 0 0 0 
0 0 0 0 0 0 0 0 
0 0 0 0 0 0 0 0 
0 0 0 0 0 0 0 0 
0 0 0 0 0 0 0 0 
0 0 0 0 0 0 0 0 
0 0 0 0 0 0 0 0 
0 0 0 0 0 0 0 0 
0 0 0 0 0 0 0 0 
0 0 0 0 0 0 0 0 
0 0 0 0 0 0 0 0 
0 0 0 0 0 0 0 0 
0 0 0 0 0 0 0 0 
0 0 0 0 0 0 0 0 
0 0 0 0 0 0 0 0 
0 0 0 0 0 0 0 0 
0 0 0 0 0 0 0 0 
0 0 0 0 0 0 0 0 
0 0 0 0 0 0 0 0 
0 0 0 0 0 0 0 0 
0 0 0 0 0 0 0 0 
0 0 0 0 0 0 0 0 
0 0 0 0 0 0 0 0 
0 0 0 0 0 0 0 0 
0 0 0 0 0 0 0 0 
0 0 0 0 0 0 0 0 
0 0 0 0 0 0 0 0 
0 0 0 0 0 0 0 0 
0 0 0 0 0 0 0 0 
0 0 0 0 0 0 0 0 
0 0 0 0 0 0 0 0 
0 0 0 0 0 0 0 0 
0 0 0 0 0 0 0 0 
0 0 0 0 0 0 0 0 
0 0 0 0 0 0 0 0 
0 0 0 0 0 0 0 0 
0 0 0 0 0 0 0 0 
0 0 0 0 0 0 0 0 
0 0 0 0 0 0 0 0 
0 0 0 0 0 0 0 0 
0 0 0 0 0 0 0 0 
0 0 0 0 0 0 0 0 
0 0 0 0 0 0 0 0 
0 0 0 0 0 0 0 0 
0 0 0 0 0 0 0 0 
0 0 0 0 0 0 0 0 
0 0 0 0 0 0 0 0 
0 0 0 0 0 0 0 0 
0 0 0 0 0 0 0 0 
0 0 0 0 0 0 0 0 
0 0 0 0 0 0 0 0 
0 0 0 0 0 0 0 0 
0 0 0 0 0 0 0 0 
0 0 0 0 0 0 0 0 
0 0 0 0 0 0 0 0 
0 0 0 0 0 0 0 0 
0 0 0 0 0 0 0 0 
0 0 0 0 0 0 0 0 
0 0 0 0 0 0 0 0 
0 0 0 0 0 0 0 0 
0 0 0 0 0 0 0 0 
0 0 0 0 0 0 0 0 
0 0 0 0 0 0 0 0 
0 0 0 0 0 0 0 0 
0 0 0 0 0 0 0 0 
0 0 0 0 0 0 0 0 
0 0 0 0 0 0 0 0 
0 0 0 0 0 0 0 0 
0 0 0 0 0 0 0 0 
0 0 0 0 0 0 0 0 
0 0 0 0 0 0 0 0 
0 0 0 0 0 0 0 0 
0 0 0 0 0 0 0 0 
0 0 0 0 0 0 0 0 
0 0 0 0 0 0 0 0 
0 0 0 0 0 0 0 0 
0 0 0 0 0 0 0 0 
0 0 0 0 0 0 0 0 
0 0 0 0 0 0 0 0 
0 0 0 0 0 0 0 0 
0 0 0 0 0 0 0 0 
0 0 0 0 0 0 0 0 
0 0 0 0 0 0 0 0 
0 0 0 0 0 0 0 0 
0 0 0 0 0 0 0 0 
0 0 0 0 0 0 0 0 
0 0 0 0 0 0 0 0 
0 0 0 0 0 0 0 0 
0 0 0 0 0 0 0 0 
0 0 0 0 0 0 0 0 
0 0 0 0 0 0 0 0 
0 0 0 0 0 0 0 0 
0 0 0 0 0 0 0 0 
0 0 0 0 0 0 0 0 
0 0 0 0 0 0 0 0 
0 0 0 0 0 0 0 0 
0 0 0 0 0 0 0 0 
0 0 0 0 0 0 0 0 
0 0 0 0 0 0 0 0 
0 0 0 0 0 0 0 0 
0 0 0 0 0 0 0 0 
0 0 0 0 0 0 0 0 
0 0 0 0 0 0 0 0 
0 0 0 0 0 0 0 0 
0 0 0 0 0 0 0 0 
0 0 0 0 0 0 0 0 
0 0 0 0 0 0 0 0 
0 0 0 0 0 0 0 0 
0 0 0 0 0 0 0 0 
0 0 0 0 0 0 0 0 
0 0 0 0 0 0 0 0 
0 0 0 0 0 0 0 0 
0 0 0 0 0 0 0 0 
0 0 0 0 0 0 0 0 
0 0 0 0 0 0 0 0 
0 0 0 0 0 0 0 0 
0 0 0 0 0 0 0 0 
0 0 0 0 0 0 0 0 
0 0 0 0 0 0 0 0 
0 0 0 0 0 0 0 0 
0.000885027 0 0 2.65599e-07 0 0 0.000885027 0 
0 0 0 0 0 0 0 0 
0 0 0 0 0 0 0 0 
0 0 0 0 0 0 0 0 
0 0 0 0 0 0 0 0 
0 0 0 0 0 0 0 0 
0 0 0 0 0 0 0 0 
0 0 0 0 0 0 0 0 
0 0 0 0 0 0 0 0 
0 0 0 0 0 0 0 0 
0 0 0 0 0 0 0 0 
0 0 0 0 0 0 0 0 
0.070053 -1.70754e-07 1.58294e-10 3.65181e-09 -0.070053 0 0 112.516 
0 0 0 0 0 0 0 0 
0 0 0 0 0 0 0 0 
0 0 0 0 0 0 0 0 
0 0 0 0 0 0 0 0 
0 0 0 0 0 0 0 0 
0 0 0 0 0 0 0 0 
0 0 0 0 0 0 0 0 
0 0 0 0 0 0 0 0 
0 0 0 0 0 0 0 0 
0 0 0 0 0 0 0 0 
0 0 0 0 0 0 0 0 
0.136074 -3.23176e-07 0 0 -0.136074 0 0 0 
0 0 0 0 0 0 0 0 
0 0 0 0 0 0 0 0 
0 0 0 0 0 0 0 0 
0 0 0 0 0 0 0 0 
0.00622991 -2.95921e-07 0 0 -0.00622991 0 0 0 
0 0 0 0 0 0 0 0 
0 0 0 0 0 0 0 0 
0 0 0 0 0 0 0 0 
0 0 0 0 0 0 0 0 
0 0 0 0 0 0 0 0 
0 0 0 0 0 0 0 0 
0 0 0 0 0 0 0 0 
0 0 0 0 0 0 0 0 
0 0 0 0 0 0 0 0 
0 0 0 0 0 0 0 0 
0 0 0 0 0 0 0 0 
0 0 0 0 0 0 0 0 
0 0 0 0 0 0 0 0 
0 0 0 0 0 0 0 0 
0 0 0 0 0 0 0 0 
0 0 0 0 0 0 0 0 
0 0 0 0 0 0 0 0 
0 0 0 0 0 0 0 0 
0 0 0 0 0 0 0 0 
0 0 0 0 0 0 0 0 
0 0 0 0 0 0 0 0 
0 0 0 0 0 0 0 0 
0 0 0 0 0 0 0 0 
0 0 0 0 0 0 0 0 
0 0 0 0 0 0 0 0 
0 0 0 0 0 0 0 0 
0 0 0 0 0 0 0 0 
0 0 0 0 0 0 0 0 
0 0 0 0 0 0 0 0 
0 0 0 0 0 0 0 0 
0 0 0 0 0 0 0 0 
0 0 0 0 0 0 0 0 
1.154e-05 0 -6.75092e-09 0 0 -1.154e-05 0 0 
1.10153e-05 -9.33611e-08 1.11746e-07 8.92111e-08 -1.60808e-13 7.78902e-06 7.78902e-06 0.0144036 
1.01065e-05 -1.19365e-07 -1.87319e-07 -2.22169e-07 -6.64317e-14 -7.14638e-06 -7.14638e-06 0.00729116 
8.96207e-05 1.16572e-09 -2.75406e-09 -5.10838e-08 0 0 -8.96207e-05 -0.0016814 
0.000105466 0 0 6.01157e-08 0 0 0.000105466 1.66701e-17 
0.000193211 2.42252e-08 1.40095e-08 -1.1013e-07 0 0 -0.000193211 0.0039811 
0.000173735 -1.15688e-08 -8.66629e-09 9.90289e-08 0 0 0.000173735 0.0016608 
3.87113e-05 0 0 -2.20654e-08 0 0 -3.87113e-05 0 
0.000238155 0 1.35748e-07 2.66153e-14 0 0.000238155 4.66935e-11 -6.44072e-18 
2.08189e-05 0 1.18668e-08 0 0 2.08189e-05 0 0 
0.000290131 -8.35578e-09 -1.65375e-07 -1.3736e-08 0 -0.000290131 0 -0.00479564 
0 0 0 0 0 0 0 0 
0 0 0 0 0 0 0 0 
3.79219e-05 0 2.16155e-08 0 0 3.79219e-05 0 0 
0.000101417 -1.65091e-09 -5.78076e-08 1.87765e-08 0 -0.000101417 0 -0.0109942 
0.000201706 9.76191e-09 1.14972e-07 -1.051e-08 0 0.000201706 0 0.00908575 
0.000122541 -1.17011e-08 3.96899e-09 6.98484e-08 0 0 0.000122541 0.000114264 
3.3195e-05 0 0 -1.94191e-08 0 0 -3.3195e-05 0 
0 0 0 0 0 0 0 0 
0.000546709 5.68555e-08 1.51312e-08 3.11624e-07 0 0 0.000546709 0.124152 
3.37004e-05 0 0 1.97147e-08 0 0 3.37004e-05 0 
0.000551937 -5.13426e-08 3.22883e-07 -2.27518e-08 0 0.000551937 0 0.17455 
9.8282e-06 0 -5.60207e-09 0 0 -9.8282e-06 0 0 
0.000357634 5.22919e-09 4.93231e-09 -2.09216e-07 0 0 -0.000357634 0.00595356 
0.00022003 1.74929e-08 1.25417e-07 5.7523e-09 0 0.00022003 0 0.00494127 
0.000471738 7.38214e-09 3.33455e-08 2.68891e-07 0 0 0.000471738 -0.017269 
8.66424e-05 1.55881e-08 -5.06858e-08 5.45272e-09 0 -8.66424e-05 0 0.0117657 
0.0003482 1.29813e-08 5.14014e-11 1.98474e-07 0 0 0.0003482 -0.0109884 
0.000147854 -8.9677e-09 -1.63578e-09 8.64944e-08 0 0 0.000147854 0.0038155 
0.000111239 2.25627e-10 8.28254e-10 -6.3406e-08 0 0 -0.000111239 0.00679707 
0.000236346 0 -1.38263e-07 0 0 -0.000236346 0 0 
0.000175845 -1.08298e-08 -1.00232e-07 1.7172e-09 0 -0.000175845 0 0.00453048 
6.63995e-06 0 3.88437e-09 0 0 6.63995e-06 0 0 
7.88923e-05 1.0686e-08 9.91377e-10 4.49686e-08 0 0 7.88923e-05 0.00202709 
0.000380268 1.50931e-09 2.22568e-08 -2.16753e-07 0 0 -0.000380268 0.0107509 
0 0 0 0 0 0 0 0 
0.000198385 1.28567e-09 -1.13079e-07 -1.62275e-09 0 -0.000198385 0 0.00381327 
0.0004011 -7.52948e-09 2.00968e-08 -2.28627e-07 0 7.86452e-11 -0.0004011 0.00483467 
0 0 0 0 0 0 0 0 
0.000391663 0 -2.23248e-07 0 0 -0.000391663 0 4.98209e-17 
0 0 0 0 0 0 0 0 
0.000458924 -7.62088e-09 2.61586e-07 -2.15945e-08 0 0.000458924 0 0.00752331 
0.00050082 1.66673e-08 -1.25135e-08 -2.85467e-07 0 0 -0.00050082 0.0159005 
0.000375602 -1.35176e-07 -2.14093e-07 7.69816e-09 0 -0.000375602 0 0.4279 
0.000445176 -1.03894e-08 1.86558e-10 -2.5375e-07 0 0 -0.000445176 -0.0220208 
0 0 0 0 0 0 0 0 
0 0 0 0 0 0 0 0 
0 0 0 0 0 0 0 0 
0 0 0 0 0 0 0 0 
0 0 0 0 0 0 0 0 
0 0 0 0 0 0 0 0 
0 0 0 0 0 0 0 0 
0 0 0 0 0 0 0 0 
0 0 0 0 0 0 0 0 
0 0 0 0 0 0 0 0 
0 0 0 0 0 0 0 0 
0 0 0 0 0 0 0 0 
0.00172362 1.97472e-09 1.27192e-08 2.7405e-08 -2.07985e-05 5.97675e-05 0.00172246 -0.312689 
0 0 0 0 0 0 0 0 
0 0 0 0 0 0 0 0 
0 0 0 0 0 0 0 0 
0 0 0 0 0 0 0 0 
0 0 0 0 0 0 0 0 
0.00216762 -6.22705e-10 -1.21246e-09 3.49423e-08 -3.85996e-05 -7.5157e-05 0.00216597 2.14181e-16 
0 0 0 0 0 0 0 0 
0.00089901 -5.31678e-08 -2.21555e-08 -6.67476e-09 7.56201e-07 -0.000898991 5.87594e-06 4.33287 
0 0 0 0 0 0 0 0 
0 0 0 0 0 0 0 0 
0 0 0 0 0 0 0 0 
0 0 0 0 0 0 0 0 
0 0 0 0 0 0 0 0 
0.000644056 5.22009e-09 -1.5752e-08 -1.02968e-08 -1.25901e-06 -0.000644041 -4.20955e-06 -0.355538 
0 0 0 0 0 0 0 0 
0 0 0 0 0 0 0 0 
0.00454459 -2.95099e-09 -5.30877e-08 -4.71704e-09 -0.000251245 -0.00451983 -0.000401604 0 
0.00110618 2.28387e-11 -1.77465e-10 -2.71513e-08 9.30465e-07 -7.23003e-06 -0.00110616 -1.40769e-16 
0.00140537 -1.35254e-09 -1.73672e-09 -2.49732e-08 -7.58208e-05 -9.73566e-05 -0.00139994 0 
0 0 0 0 0 0 0 0 
0 0 0 0 0 0 0 0 
0 0 0 0 0 0 0 0 
0 0 0 0 0 0 0 0 
0 0 0 0 0 0 0 0 
0 0 0 0 0 0 0 0 
0 0 0 0 0 0 0 0 
0 0 0 0 0 0 0 0 
0 0 0 0 0 0 0 0 
0 0 0 0 0 0 0 0 
0 0 0 0 0 0 0 0 
0 0 0 0 0 0 0 0 
0 0 0 0 0 0 0 0 
0 0 0 0 0 0 0 0 
0 0 0 0 0 0 0 0 
0 0 0 0 0 0 0 0 
0 0 0 0 0 0 0 0 
0 0 0 0 0 0 0 0 
0 0 0 0 0 0 0 0 
0 0 0 0 0 0 0 0 
0 0 0 0 0 0 0 0 
0 0 0 0 0 0 0 0 
0 0 0 0 0 0 0 0 
0 0 0 0 0 0 0 0 
0 0 0 0 0 0 0 0 
0.00282575 -6.88838e-09 2.69889e-08 -4.52368e-09 -0.000689775 0.00270256 -0.000452984 -8.6499e-17 
0.00199427 -3.26257e-09 1.4803e-08 -1.08317e-09 -0.000428143 0.00194258 -0.000142143 3.40072e-16 
0 0 0 0 0 0 0 0 
0 0 0 0 0 0 0 0 
0.00249685 -3.74009e-09 1.60472e-08 -1.66781e-09 -0.000563868 0.00241932 -0.000251444 1.30231e-16 
0 0 0 0 0 0 0 0 
0 0 0 0 0 0 0 0 
0 0 0 0 0 0 0 0 
0 0 0 0 0 0 0 0 
0 0 0 0 0 0 0 0 
0.000489953 -2.02613e-09 1.1121e-08 2.46385e-10 -8.7798e-05 0.000481904 1.06766e-05 -1.87158e-17 
0 0 0 0 0 0 0 0 
0 0 0 0 0 0 0 0 
0.0021248 -4.88355e-09 1.89417e-08 3.82308e-09 -0.000520621 0.00201931 0.000407567 -4.60443e-17 
0.0012533 -3.77976e-09 1.61628e-08 2.44725e-09 -0.000282339 0.00120732 0.000182804 0 
0 0 0 0 0 0 0 0 
0.00142285 -4.18985e-09 1.86635e-08 2.31009e-09 -0.000309416 0.00137828 0.000170597 0 
0 0 0 0 0 0 0 0 
0 0 0 0 0 0 0 0 
0.00215576 -1.22184e-08 2.14263e-08 1.32982e-08 -0.000434049 0.00207113 0.000411439 -0.473782 
0 0 0 0 0 0 0 0 
0 0 0 0 0 0 0 0 
0 0 0 0 0 0 0 0 
0 0 0 0 0 0 0 0 
0 0 0 0 0 0 0 0 
0 0 0 0 0 0 0 0 
0 0 0 0 0 0 0 0 
0.00211351 -5.14034e-09 5.18224e-09 2.23041e-08 -0.000462932 0.000466706 0.00200868 1.2447e-15 
0.00176997 -2.96791e-09 1.89369e-09 1.25068e-08 -0.000404307 0.00025797 0.00170376 1.17674e-16 
0 0 0 0 0 0 0 0 
0 0 0 0 0 0 0 0 
0.0163134 -8.63215e-08 -3.53681e-08 1.79831e-07 -0.00299702 -0.00214887 0.0158911 24.7975 
0 0 0 0 0 0 0 0 
0.00241695 -9.98661e-09 -1.49885e-09 5.58149e-08 -0.00042554 -6.38677e-05 0.00237833 2.35571e-15 
0 0 0 0 0 0 0 0 
0 0 0 0 0 0 0 0 
0 0 0 0 0 0 0 0 
0 0 0 0 0 0 0 0 
0.00257531 -5.55155e-09 -2.36372e-09 2.70568e-08 -0.000515737 -0.000219589 0.00251357 0 
0.000981067 -3.49442e-09 -1.33758e-09 1.82726e-08 -0.000183803 -7.03554e-05 0.000961124 7.95128e-17 
0.00143941 -1.20977e-08 -7.1123e-10 6.86096e-08 -0.000249938 -1.4694e-05 0.00141747 -2.14156e-16 
0 0 0 0 0 0 0 0 
0 0 0 0 0 0 0 0 
0 0 0 0 0 0 0 0 
0 0 0 0 0 0 0 0 
0 0 0 0 0 0 0 0 
0.000670373 -1.39369e-09 -6.89202e-09 6.15764e-10 -0.000132365 -0.000654568 5.8482e-05 0 
0 0 0 0 0 0 0 0 
0 0 0 0 0 0 0 0 
0.00119041 -3.51105e-09 -1.54819e-08 2.13203e-09 -0.000260938 -0.0011506 0.00015845 -3.20989e-17 
0 0 0 0 0 0 0 0 
0.00154671 -6.0799e-09 -3.17555e-08 1.93449e-09 -0.000290331 -0.00151641 9.23768e-05 0 
0 0 0 0 0 0 0 0 
0 0 0 0 0 0 0 0 
0 0 0 0 0 0 0 0 
0 0 0 0 0 0 0 0 
0 0 0 0 0 0 0 0 
0.00072981 -2.201e-09 -9.41179e-09 -1.42506e-09 -0.000164409 -0.000703037 -0.000106449 8.0656e-18 
0 0 0 0 0 0 0 0 
0 0 0 0 0 0 0 0 
0 0 0 0 0 0 0 0 
0 0 0 0 0 0 0 0 
0 0 0 0 0 0 0 0 
0 0 0 0 0 0 0 0 
0 0 0 0 0 0 0 0 
0 0 0 0 0 0 0 0 
0 0 0 0 0 0 0 0 
0 0 0 0 0 0 0 0 
0 0 0 0 0 0 0 0 
0 0 0 0 0 0 0 0 
0 0 0 0 0 0 0 0 
0 0 0 0 0 0 0 0 
0 0 0 0 0 0 0 0 
0.00196543 -1.0187e-08 5.30044e-10 -1.38444e-08 -0.000467413 -0.000560399 -0.00182494 -0.376929 
0 0 0 0 0 0 0 0 
0 0 0 0 0 0 0 0 
0.00113732 -4.6993e-09 7.053e-10 -2.62643e-08 -0.000200242 3.00536e-05 -0.00111915 -2.35571e-15 
0 0 0 0 0 0 0 0 
0 0 0 0 0 0 0 0 
0 0 0 0 0 0 0 0 
0 0 0 0 0 0 0 0 
0 0 0 0 0 0 0 0 
0 0 0 0 0 0 0 0 
0.000823931 -6.92483e-09 4.07114e-10 -3.92727e-08 -0.000143067 8.41096e-06 -0.000811371 0 
0.000319231 -6.46545e-10 6.85501e-10 -2.44732e-09 -7.87034e-05 8.34455e-05 -0.000297911 0 
0 0 0 0 0 0 0 0 
0 0 0 0 0 0 0 0 
0 0 0 0 0 0 0 0 
0 0 0 0 0 0 0 0 
0 0 0 0 0 0 0 0 
0 0 0 0 0 0 0 0 
0 0 0 0 0 0 0 0 
0 0 0 0 0 0 0 0 
0 0 0 0 0 0 0 0 
0 0 0 0 0 0 0 0 
0 0 0 0 0 0 0 0 
0 0 0 0 0 0 0 0 
0 0 0 0 0 0 0 0 
0 0 0 0 0 0 0 0 
0.000319457 -2.02126e-11 8.8822e-09 9.23199e-10 -7.23068e-07 0.000317744 3.30257e-05 0 
0 0 0 0 0 0 0 0 
0 0 0 0 0 0 0 0 
0 0 0 0 0 0 0 0 
0 0 0 0 0 0 0 0 
0 0 0 0 0 0 0 0 
0 0 0 0 0 0 0 0 
0 0 0 0 0 0 0 0 
0 0 0 0 0 0 0 0 
0 0 0 0 0 0 0 0 
0.00126034 6.23026e-09 2.15235e-08 1.50389e-09 -6.37053e-06 0.00124935 -0.000165968 -0.144959 
0 0 0 0 0 0 0 0 
0.00208344 -6.6521e-10 2.14899e-08 -6.67301e-09 -6.15641e-05 0.00198886 -0.000617577 0 
0 0 0 0 0 0 0 0 
0 0 0 0 0 0 0 0 
0 0 0 0 0 0 0 0 
0 0 0 0 0 0 0 0 
0 0 0 0 0 0 0 0 
0 0 0 0 0 0 0 0 
0 0 0 0 0 0 0 0 
0 0 0 0 0 0 0 0 
0 0 0 0 0 0 0 0 
0 0 0 0 0 0 0 0 
0.0122236 -3.95117e-09 4.43177e-08 -1.21819e-07 -0.000372407 0.00417704 -0.0114817 0 
0 0 0 0 0 0 0 0 
0 0 0 0 0 0 0 0 
0 0 0 0 0 0 0 0 
0 0 0 0 0 0 0 0 
0 0 0 0 0 0 0 0 
0.00569869 -2.73618e-08 -5.84006e-08 -7.2023e-08 -0.000263007 0.00219294 -0.00525328 21.7753 
0 0 0 0 0 0 0 0 
0.0024896 -6.72361e-10 7.33192e-09 -2.60125e-08 -6.19179e-05 0.000675198 -0.00239549 -1.59098e-16 
0.00276405 -5.0753e-10 6.43388e-09 -3.00891e-08 -4.5586e-05 0.000577886 -0.00270258 1.55174e-16 
0 0 0 0 0 0 0 0 
0.00628331 -2.04116e-10 7.65266e-09 -2.46076e-07 -5.20937e-06 0.000195308 -0.00628027 3.57144e-15 
0 0 0 0 0 0 0 0 
0 0 0 0 0 0 0 0 
0 0 0 0 0 0 0 0 
0.000464824 -2.58433e-12 -3.40003e-10 -2.22476e-08 -5.39887e-08 -7.10292e-06 -0.000464769 3.60915e-17 
0 0 0 0 0 0 0 0 
0 0 0 0 0 0 0 0 
0 0 0 0 0 0 0 0 
0.000252681 -5.85845e-11 -8.42364e-10 -2.55648e-09 -5.4983e-06 -7.90579e-05 -0.000239932 -1.29714e-15 
0.00593939 -1.2849e-09 -1.24379e-08 -2.85856e-08 -0.000244595 -0.00236768 -0.00544156 -4.93308e-16 
0 0 0 0 0 0 0 0 
0 0 0 0 0 0 0 0 
0 0 0 0 0 0 0 0 
0.00322202 -1.04148e-09 -1.16817e-08 -3.21103e-08 -9.81619e-05 -0.00110102 -0.00302647 -6.5133e-16 
0 0 0 0 0 0 0 0 
0 0 0 0 0 0 0 0 
0.00199242 -8.33126e-10 -7.59976e-09 -1.3372e-08 -0.000107765 -0.000983032 -0.00172967 -2.79337e-17 
0 0 0 0 0 0 0 0 
0 0 0 0 0 0 0 0 
0.000654122 -7.04016e-11 -2.12104e-09 -7.80838e-09 -5.69122e-06 -0.000171463 -0.000631224 -8.72877e-18 
0.00422269 -1.24191e-09 -1.33284e-08 -2.22166e-08 -0.0002195 -0.0024881 -0.00340474 -0.514116 
0 0 0 0 0 0 0 0 
0 0 0 0 0 0 0 0 
0 0 0 0 0 0 0 0 
0 0 0 0 0 0 0 0 
0.00155898 -3.69318e-10 -2.9908e-08 -4.04429e-09 -1.9076e-05 -0.00154481 -0.000208895 4.46177e-17 
0 0 0 0 0 0 0 0 
0 0 0 0 0 0 0 0 
0 0 0 0 0 0 0 0 
0 0 0 0 0 0 0 0 
0.00157983 -2.93781e-10 -8.03322e-09 -2.72894e-09 -5.46725e-05 -0.00149498 -0.000507854 -1.60755e-16 
0.00228531 -8.75603e-10 -2.07194e-08 -1.10209e-08 -8.52061e-05 -0.00201624 -0.00107245 0 
0 0 0 0 0 0 0 0 
0 0 0 0 0 0 0 0 
0.000855093 -1.49126e-10 -1.34416e-08 -3.23433e-09 -9.22292e-06 -0.000831316 -0.000200032 2.6712e-17 
0 0 0 0 0 0 0 0 
0 0 0 0 0 0 0 0 
0 0 0 0 0 0 0 0 
0 0 0 0 0 0 0 0 
0 0 0 0 0 0 0 0 
0 0 0 0 0 0 0 0 
0 0 0 0 0 0 0 0 
0 0 0 0 0 0 0 0 
0 0 0 0 0 0 0 0 
0.00552586 -2.60322e-09 -3.34751e-08 2.53841e-08 -0.000341755 -0.00439466 0.00333246 1.81445e-15 