ITEM: TIMESTEP
215
ITEM: NUMBER OF SURFS
6916
ITEM: BOX BOUNDS oo rr rr
-0.35 0.35
-0.25 0.25
-0.25 0.25
ITEM: SURFS f_save[1] f_save[2] f_save[3] f_save[4] f_save[5] f_save[6] f_save[7] f_save[8] 
0.00552922 -4.14865e-08 -7.04674e-10 -1.86342e-09 -0.00552922 0 0 3.27468 
0 0 0 0 0 0 0 0 
0 0 0 0 0 0 0 0 
0 0 0 0 0 0 0 0 
0 0 0 0 0 0 0 0 
0 0 0 0 0 0 0 0 
0 0 0 0 0 0 0 0 
0.0107986 -2.56467e-08 0 0 -0.0107986 0 0 0 
0.00769469 -1.82749e-08 0 0 -0.00769469 0 0 0 
0 0 0 0 0 0 0 0 
0 0 0 0 0 0 0 0 
0.0106835 -2.60411e-08 0 0 -0.0106835 0 0 0 
0.0230884 -5.62781e-08 0 0 -0.0230884 0 0 0 
0.00713451 -1.69445e-08 0 0 -0.00713451 0 0 0 
0.0109586 -2.60268e-08 0 0 -0.0109586 0 0 0 
0 0 0 0 0 0 0 0 
0 0 0 0 0 0 0 0 
0.0102358 -2.431e-08 0 0 -0.0102358 0 0 0 
0 0 0 0 0 0 0 0 
0 0 0 0 0 0 0 0 
0.00802698 -1.90641e-08 0 0 -0.00802698 0 0 0 
0 0 0 0 0 0 0 0 
0 0 0 0 0 0 0 0 
0.0039249 -9.32164e-09 0 0 -0.0039249 0 0 0 
0 0 0 0 0 0 0 0 
0 0 0 0 0 0 0 0 
0 0 0 0 0 0 0 0 
0.00500438 -1.18854e-08 0 0 -0.00500438 0 0 0 
0 0 0 0 0 0 0 0 
0.00646265 -1.61567e-08 0 0 -0.00646265 0 0 6.17121e-15 
0.00384078 -1.82437e-07 -9.76734e-11 -6.94426e-10 -0.00384078 0 0 0.363093 
0.00337889 -2.90585e-07 7.50689e-10 -1.96548e-09 -0.00337889 0 0 0.531331 
0.00242075 -1.14986e-07 0 0 -0.00242075 0 0 0 
0.00315115 -7.87787e-09 0 0 -0.00315115 0 0 0 
0 0 0 0 0 0 0 0 
0.000630582 1.49764e-09 0 0 0.000630582 0 0 0 
0.00064567 1.53347e-09 0 0 0.00064567 0 0 0 
0.00187102 2.28031e-09 0 0 0.00187102 0 0 0 
0 0 0 0 0 0 0 0 
0 0 0 0 0 0 0 0 
0 0 0 0 0 0 0 0 
0 0 0 0 0 0 0 0 
0 0 0 0 0 0 0 0 
0 0 0 0 0 0 0 0 
0.000484043 1.14961e-09 0 0 0.000484043 0 0 0 
0 0 0 0 0 0 0 0 
0 0 0 0 0 0 0 0 
0.000604117 1.43478e-09 0 0 0.000604117 0 0 0 
0 0 0 0 0 0 0 0 
0 0 0 0 0 0 0 0 
0 0 0 0 0 0 0 0 
0 0 0 0 0 0 0 0 
0 0 0 0 0 0 0 0 
0 0 0 0 0 0 0 0 
0 0 0 0 0 0 0 0 
0.00110486 2.69309e-09 0 0 0.00110486 0 0 0 
0.00110152 2.68495e-09 0 0 0.00110152 0 0 0 
0.000650964 1.58672e-09 -9.46262e-10 1.80579e-09 0.000650964 0 0 -0.129787 
0 0 0 0 0 0 0 0 
0 0 0 0 0 0 0 0 
0.000386241 9.41465e-10 0 0 0.000386241 0 0 0 
0 0 0 0 0 0 0 0 
1.21256e-05 -2.87076e-07 2.4104e-07 2.50255e-07 0 8.57407e-06 8.57408e-06 0.0178856 
1.18994e-05 -1.78503e-07 -1.04009e-07 -1.13076e-07 0 -8.41416e-06 -8.41416e-06 0.0237701 
0.000311098 -9.43372e-09 1.77326e-07 1.71599e-09 0 0.000311098 0 0.0259457 
0.000231117 -1.29491e-08 -1.31737e-07 -7.48684e-09 0 -0.000231117 0 0.0568917 
0.000238184 5.90149e-09 1.35765e-07 -7.99924e-10 0 0.000238184 0 0.00232333 
0.000347993 -1.11899e-08 -1.98356e-07 -3.03643e-09 0 -0.000347993 0 0.0356143 
0.000304797 -3.73783e-10 1.73734e-07 7.48173e-09 0 0.000304797 0 -0.00419246 
0.000316224 -3.24526e-09 -5.45666e-09 1.80248e-07 0 0 0.000316224 0.00265246 
0.000285889 -5.23992e-09 2.23797e-09 1.67245e-07 0 0 0.000285889 0.0423362 
0.000242093 7.41386e-09 -1.2826e-09 -1.41624e-07 0 0 -0.000242093 -0.000389055 
0.000302907 1.00862e-08 5.39599e-09 1.77201e-07 0 0 0.000302907 -0.00288909 
0.000180695 -6.02986e-09 1.02996e-07 1.19588e-09 0 0.000180695 0 0.0275271 
9.27711e-05 -1.27396e-08 5.42711e-08 -3.72852e-09 0 9.27711e-05 0 0.041875 
0.000114593 -2.06702e-08 -4.04969e-09 -6.53179e-08 0 0 -0.000114593 0.0791864 
0.000197797 1.31279e-09 1.12745e-07 -2.15526e-10 0 0.000197797 0 0.00175235 
0.00020569 -1.99357e-08 -1.17243e-07 6.27218e-10 0 -0.00020569 0 0.068055 
0.000296852 -1.78204e-08 -5.05314e-09 1.69205e-07 0 0 0.000296852 0.0621314 
0.000220551 5.1524e-09 -3.24732e-09 1.25714e-07 0 0 0.000220551 0.00402714 
0.000189362 -1.53399e-08 2.48023e-09 -1.07936e-07 0 0 -0.000189362 0.0444981 
0.000185984 1.66455e-09 -1.06011e-07 -7.18354e-09 0 -0.000185984 0 0.00127182 
0.000167922 -1.36747e-08 9.57156e-08 -2.53182e-09 0 0.000167922 0 0.0498765 
0.00015066 1.57544e-09 3.27995e-09 -8.58763e-08 0 0 -0.00015066 -0.00338756 
0.000181038 -8.82348e-09 1.05907e-07 -4.36066e-09 0 0.000181038 0 0.0188966 
0.000187405 3.43066e-09 -1.77993e-09 1.09632e-07 0 0 0.000187405 -0.000875046 
0.00023722 1.62559e-09 -1.38774e-07 -2.12622e-09 0 -0.00023722 0 0.00115622 
0.000113982 3.69125e-09 -2.21329e-09 -6.49697e-08 0 0 -0.000113982 0.000365593 
0.000150983 7.20944e-10 -8.83248e-08 2.80977e-10 0 -0.000150983 0 -0.00175672 
0.000204013 -1.26444e-08 4.98909e-09 1.19347e-07 0 0 0.000204013 0.0426378 
0.0001633 -8.02295e-09 1.93165e-09 -9.30813e-08 0 0 -0.0001633 0.0383962 
0.00014928 -2.875e-09 -8.7329e-08 -6.89916e-09 0 -0.00014928 0 0.0262045 
0.000220115 -9.34466e-10 -1.25466e-07 -1.095e-08 0 -0.000220115 0 0.00237297 
0.000199324 -8.01584e-10 -1.46331e-10 5.83024e-08 0 0 0.000199324 -0.00029674 
9.54119e-05 -7.30088e-09 -1.04309e-10 5.43848e-08 0 0 9.54119e-05 0.0284356 
0.00021225 -2.22676e-08 2.48848e-09 -1.20983e-07 0 0 -0.00021225 0.0750387 
0.000103764 -1.30449e-08 -4.84427e-10 5.91452e-08 0 0 0.000103764 0.0456213 
0.000111325 -1.2953e-08 -6.3455e-08 1.26357e-09 0 -0.000111325 0 0.045269 
0.000194321 2.40891e-09 5.0492e-10 -1.10763e-07 0 3.81013e-11 -0.000194321 -0.00154003 
0.000203826 1.83484e-09 -1.16181e-07 6.93575e-09 0 -0.000203826 0 -0.00050886 
9.90516e-05 -2.32174e-08 -5.64594e-08 1.77177e-09 0 -9.90516e-05 0 0.0695168 
8.27163e-05 6.18719e-11 -1.79673e-09 4.71483e-08 0 0 8.27163e-05 -0.000558001 
0.000245602 -2.14003e-09 1.39993e-07 4.70864e-09 0 0.000245602 0 0.0184352 
8.93679e-05 3.01403e-09 2.13508e-09 -5.09397e-08 0 0 -8.93679e-05 -0.00519219 
0.000166217 -1.02293e-08 -9.47438e-08 2.25656e-09 0 -0.000166217 0 0.0297191 
0.000233188 -3.97699e-09 5.62035e-09 -1.32917e-07 0 0 -0.000233188 0.015774 
0.000293843 -5.53009e-11 2.09363e-08 6.50371e-10 -5.59e-07 0.000293842 0 -0.0213114 
0.00050201 1.74659e-11 9.14461e-09 -4.65536e-11 -3.40481e-05 0.000500336 -2.27781e-05 -0.0329509 
0.000161511 -2.85513e-11 2.60359e-09 -9.03418e-11 -1.76998e-06 0.000161405 -5.60057e-06 0 
0.000492675 -2.75427e-10 8.86047e-09 -4.66034e-10 -1.52863e-05 0.000491758 -2.5865e-05 -1.78388e-17 
0.000202282 -5.86465e-11 3.33452e-09 -3.77166e-11 -3.5569e-06 0.000202238 -2.2875e-06 0 
0 0 0 0 0 0 0 0 
0.000468816 -2.69637e-10 1.13029e-08 -5.50287e-10 -2.48052e-07 0.000468774 6.24425e-06 -0.00257137 
0.00033303 -1.18232e-10 6.16604e-09 -5.51927e-10 -1.27447e-05 0.000332721 6.58533e-06 -0.0246455 
0.000364087 -7.08692e-11 5.86913e-09 2.03653e-10 -4.39335e-06 0.000363842 1.26249e-05 -1.74348e-17 
0.000344235 -1.32444e-10 2.45267e-08 1.35163e-09 -1.63973e-07 0.000344235 0 -0.0275271 
0.000105186 -1.42574e-11 0 7.49452e-09 -2.00104e-07 0 0.000105186 -3.10141e-18 
0.000112779 -1.96621e-09 1.41321e-09 1.85645e-09 -7.64906e-06 5.11722e-06 0.000112403 0.00553753 
9.40054e-05 -1.66179e-11 5.25821e-11 1.51538e-09 -1.03019e-06 3.25973e-06 9.39432e-05 4.98145e-18 
2.7784e-05 2.57495e-10 1.88494e-10 4.99635e-10 -8.62057e-07 1.45863e-06 2.77323e-05 -0.00121093 
0.000306162 -3.01741e-10 -9.83793e-10 5.05495e-09 -5.38351e-06 3.46223e-06 0.000306095 0.0127153 
0 0 0 0 0 0 0 0 
0.000216453 -2.75916e-12 -6.94568e-11 5.21433e-09 -1.14526e-07 -2.88297e-06 0.000216433 1.14652e-18 
0.000193607 -1.3691e-10 -7.07432e-11 3.57427e-09 -7.40912e-06 -3.82838e-06 0.000193428 -3.04397e-17 
0 0 0 0 0 0 0 0 
0.000176965 2.18814e-09 -1.02425e-09 1.26098e-08 -8.42957e-08 0 0.000176965 0.00262631 
0.000226028 1.72941e-09 -1.61078e-08 1.41548e-09 -4.29991e-07 -0.000226028 0 -0.0084217 
0.000185561 -2.28514e-10 -3.35801e-09 1.52875e-10 -1.25854e-05 -0.000184942 8.4196e-06 6.6383e-18 
0.000411602 3.64279e-10 -6.63008e-09 5.12532e-10 -4.5107e-06 -0.00041133 1.42727e-05 0.0105226 
0.000265809 -1.85301e-10 -4.77098e-09 4.09487e-10 -8.2473e-06 -0.000265315 1.39547e-05 0.00812447 
0 0 0 0 0 0 0 0 
0 0 0 0 0 0 0 0 
0.000421754 -5.37618e-12 -1.016e-08 -1.35335e-10 -2.23151e-07 -0.000421716 -5.61742e-06 1.91781e-17 
0.000106235 -7.51246e-11 -1.96125e-09 -3.88178e-11 -4.06549e-06 -0.000106137 -2.10069e-06 -4.34853e-18 
0 0 0 0 0 0 0 0 
0.000318717 -3.44566e-10 -2.27084e-08 1.84509e-09 -1.51818e-07 -0.000318717 0 0.0029511 
0.000380419 6.031e-10 1.1953e-10 -2.71061e-08 -7.23701e-07 0 -0.000380418 0.000269107 
0.000429469 -5.28882e-10 -3.53821e-10 -7.77191e-09 -2.91281e-05 -1.94867e-05 -0.000428037 2.04681e-17 
0.000233122 -1.53097e-08 -1.23291e-09 -3.55227e-09 -2.55476e-06 -8.08375e-06 -0.000232968 1.38953 
5.2614e-05 -2.41424e-10 4.20207e-10 -9.64362e-10 -1.63246e-06 -2.76219e-06 -5.25161e-05 -0.000729894 
0.000302385 -3.05843e-10 3.00406e-10 -4.98486e-09 -5.31709e-06 -3.41951e-06 -0.000302319 -0.0333459 
0 0 0 0 0 0 0 0 
0.00018654 -1.38571e-08 1.33432e-09 -4.46944e-09 -9.86991e-08 2.48457e-06 -0.000186524 1.14642 
0.000542504 -3.83634e-10 1.98228e-10 -1.00154e-08 -2.0761e-05 1.07274e-05 -0.000542 -2.82655e-17 
0.00016592 -3.22962e-11 9.28078e-11 -2.67466e-09 -2.00212e-06 5.75338e-06 -0.000165808 -2.49069e-18 
0.000156267 -4.18802e-10 4.50901e-10 -1.11339e-08 -7.44365e-08 0 -0.000156267 -0.00301505 
0 0 0 0 0 0 0 0 
0 0 0 0 0 0 0 0 
0 0 0 0 0 0 0 0 
0 0 0 0 0 0 0 0 
0 0 0 0 0 0 0 0 
0 0 0 0 0 0 0 0 
0 0 0 0 0 0 0 0 
0 0 0 0 0 0 0 0 
0 0 0 0 0 0 0 0 
0 0 0 0 0 0 0 0 
0 0 0 0 0 0 0 0 
0 0 0 0 0 0 0 0 
0 0 0 0 0 0 0 0 
0 0 0 0 0 0 0 0 
0 0 0 0 0 0 0 0 
0 0 0 0 0 0 0 0 
0.000191752 -7.84662e-10 4.42816e-09 -1.18914e-10 -3.34452e-05 0.000188745 -5.06854e-06 2.74002e-17 
0 0 0 0 0 0 0 0 
0.000679481 -1.11277e-09 5.01828e-09 -4.07119e-10 -0.000146638 0.000661297 -5.36491e-05 0 
0.000768308 -2.4695e-09 1.31278e-08 -1.08925e-09 -0.000141567 0.000752567 -6.24425e-05 -3.13237e-16 
0.000659946 -1.68099e-09 1.2484e-08 -1.90223e-09 -0.000128655 0.000642998 -7.43645e-05 -0.00153046 
0.000687458 -1.0495e-09 4.72161e-09 -7.38346e-10 -0.000162492 0.000663521 -7.7041e-05 0.0487756 
0.00012076 -3.29287e-10 1.48608e-09 -2.23801e-10 -2.58465e-05 0.000116646 -1.75666e-05 -9.46084e-18 
0.000188298 -5.67228e-10 2.45138e-09 -3.37583e-10 -4.20719e-05 0.000181822 -2.50389e-05 0 
0.000175272 -4.62812e-11 2.05083e-09 -5.22621e-10 -4.08342e-05 0.000166463 -3.66481e-05 0.0254079 
0.000455948 -1.41095e-09 5.02598e-09 -9.19441e-10 -8.7505e-05 0.000446953 -2.1554e-05 0.0441668 
0.000138644 -3.94249e-10 1.55548e-09 -3.62453e-10 -3.32262e-05 0.000131092 -3.05465e-05 -1.69302e-17 
0.000121905 -4.0879e-10 2.29017e-09 8.66691e-11 -2.14064e-05 0.000119925 4.53845e-06 -2.1039e-18 
0.000410155 -1.40024e-08 2.99214e-09 4.13695e-10 -8.5988e-05 0.000399128 3.91105e-05 1.52777 
0.000407317 -1.15772e-09 9.42274e-09 1.38831e-09 -7.17732e-05 0.000400661 1.50547e-05 0.0298326 
0.000921286 -2.15584e-09 8.20615e-09 1.65628e-09 -0.000229752 0.000874543 0.000176513 -2.74034e-16 
0.0010017 -1.60919e-09 6.51776e-09 9.86872e-10 -0.000237549 0.000962156 0.000145683 -3.79585e-16 
0.000151478 -1.34917e-09 1.3926e-09 1.7038e-09 -3.44501e-05 0.000145473 2.44199e-05 -0.00631373 
0.000791438 -2.21908e-09 1.03917e-08 1.28624e-09 -0.000164081 0.000768379 9.51065e-05 -1.14375e-16 
0.000697057 -1.46301e-09 7.19497e-09 6.14696e-10 -0.000138412 0.000680697 5.81547e-05 -1.52043e-17 
0.000153472 -3.00398e-10 2.99303e-09 -1.31513e-09 -2.75511e-05 0.000150793 7.49506e-06 0.0302579 
0.000797647 -2.63315e-09 1.4048e-08 -9.88982e-10 -0.00015607 0.000773863 0.0001141 0.031143 
4.89851e-05 -1.17882e-10 5.51076e-10 9.29543e-11 -1.01101e-05 4.72628e-05 7.97219e-06 0 
0.000456026 -2.85165e-09 9.33909e-10 5.00689e-09 -8.21404e-05 4.17189e-05 0.000446623 -0.0377187 
0.0004198 -7.10077e-10 3.51284e-10 2.88577e-09 -9.96112e-05 4.92788e-05 0.000404822 0 
0.000551779 2.17977e-09 -1.31999e-09 1.03482e-08 -0.00010055 3.62623e-05 0.000541327 0.0176416 
0.000211647 -7.71015e-10 2.88557e-10 3.94197e-09 -4.0522e-05 1.51656e-05 0.000207177 -2.11159e-18 
0.00081237 -1.8449e-09 5.15713e-10 9.09632e-09 -0.000161227 4.50685e-05 0.000794933 -2.8089e-17 
0.000393246 -1.59873e-10 -1.98454e-10 5.88823e-09 -8.16171e-05 3.08823e-05 0.000383441 0.0318223 
0.000685735 -1.37062e-08 1.17817e-09 4.5721e-09 -0.000150879 0.00015139 0.000651574 1.77188 
0.00013155 -2.16128e-10 1.18922e-10 8.88189e-10 -3.08433e-05 1.69711e-05 0.000126752 -1.14673e-17 
0.000297861 -1.1594e-09 9.60811e-10 5.54181e-09 -5.33134e-05 1.10823e-05 0.000292842 -0.00390864 
0.00113841 -2.4562e-09 3.46559e-09 1.06656e-08 -0.000269925 0.000311927 0.00106105 -0.0176594 
0.000377534 -7.39162e-10 3.449e-10 2.86684e-09 -8.16488e-05 8.65484e-05 0.000358294 -0.0675315 
0.000314133 -1.01374e-09 -5.48012e-11 6.51238e-09 -5.89654e-05 -1.87615e-05 0.000307978 -0.0195212 
0.000643656 -1.08872e-09 -5.38604e-10 4.42459e-09 -0.000152728 -7.55566e-05 0.000620692 1.81767e-16 
0.00061097 -1.11824e-09 -1.3407e-09 4.36599e-09 -0.000145299 -0.000174204 0.000567297 5.22046e-18 
0.000270754 -4.16638e-10 -1.46533e-10 1.80622e-09 -6.06672e-05 -2.13369e-05 0.000263005 5.85028e-18 
0.000460782 -1.20751e-09 -1.23057e-09 4.78552e-09 -0.000109385 -0.000111474 0.000433507 -5.8233e-17 
0.000309602 -7.20183e-10 -6.88531e-10 3.3163e-09 -6.43912e-05 -6.15613e-05 0.000296509 -3.59224e-18 
0.000342142 -7.37609e-10 -3.07919e-10 3.62878e-09 -6.79178e-05 -2.83526e-05 0.000334132 0 
0.000188294 -1.67429e-09 5.21385e-10 3.07678e-09 -3.64568e-05 -1.81824e-05 0.000183834 -0.00959762 
0.000379818 -9.19945e-09 -6.5817e-10 2.52167e-08 -6.59454e-05 -4.06838e-06 0.000374027 0.144793 
0.000254452 -1.00053e-09 -1.15497e-09 5.99984e-09 -4.5127e-05 -1.81325e-05 0.000249761 0.00465144 
0.00063048 -2.67786e-09 -1.46082e-08 -2.05715e-09 -0.000109968 -0.000620592 1.66654e-05 -0.0070445 
0.000586039 -1.76028e-09 -6.95909e-09 1.40458e-09 -0.000141036 -0.000557572 0.000112537 -9.01339e-17 
0 0 0 0 0 0 0 0 
0.000224109 -7.20334e-10 -3.82928e-09 3.17725e-10 -4.1294e-05 -0.000219518 1.8214e-05 -1.61225e-17 
0.000403975 -5.60661e-10 -7.77839e-09 7.93929e-10 -7.87542e-05 -0.0003936 4.5521e-05 0.00152374 
0 0 0 0 0 0 0 0 
0.000229507 -6.25818e-10 -2.82434e-09 4.2534e-10 -4.91219e-05 -0.000221689 3.33859e-05 -1.89217e-17 
0 0 0 0 0 0 0 0 
0.0005488 -8.41398e-09 -4.66174e-09 4.156e-10 -0.000127857 -0.000521216 0.00011475 1.10133 
0.000101652 -2.24253e-10 -1.14543e-09 5.52374e-11 -1.9509e-05 -9.96467e-05 4.80538e-06 6.99048e-18 
0.000928623 -2.64064e-09 -1.04185e-08 2.42767e-09 -0.000222546 -0.000878039 0.000204598 -6.09488e-17 
0.000585647 -1.0314e-09 -1.1166e-08 -4.88398e-10 -0.000102839 -0.000576135 -2.18033e-05 -0.00801969 
0 0 0 0 0 0 0 0 
0.000263715 -2.28786e-10 -6.18872e-09 -1.03917e-09 -4.64692e-05 -0.000259406 -9.74709e-06 0.0189862 
0.000769953 -1.80172e-09 -6.85818e-09 -1.38422e-09 -0.000192012 -0.000730888 -0.000147518 1.71271e-17 
0 0 0 0 0 0 0 0 
0.000395806 -1.14032e-09 -4.81526e-09 -8.08317e-10 -9.0017e-05 -0.000380116 -6.38084e-05 4.7574e-18 
0.000367059 -1.02918e-09 -4.81956e-09 -5.96544e-10 -7.60989e-05 -0.000356365 -4.41092e-05 0 
0.000361985 -1.76304e-09 -3.62701e-09 7.88531e-10 -7.18781e-05 -0.000353489 -3.01997e-05 -0.0308997 
2.34567e-05 -8.04053e-11 -4.40075e-10 -2.18736e-11 -4.21091e-06 -2.30472e-05 -1.14555e-06 5.26034e-19 
0.000272904 -9.47424e-10 -4.31316e-09 -2.94283e-09 -5.33974e-05 -0.000264767 -3.90378e-05 0.00266228 
0.000551386 -1.3269e-09 -6.20301e-09 -1.04631e-09 -0.000113801 -0.000531999 -8.97365e-05 2.34314e-16 
0 0 0 0 0 0 0 0 
0 0 0 0 0 0 0 0 
2.65523e-05 -8.47806e-11 -3.05754e-11 -4.56431e-10 -4.83857e-06 -1.74499e-06 -2.60493e-05 5.73249e-19 
0.000172226 -6.21105e-10 -1.33515e-09 -3.12845e-09 -3.29745e-05 -1.23409e-05 -0.000168589 0.0102463 
0.000660209 -1.6527e-08 -1.95855e-09 -4.25737e-09 -0.000131029 -3.6627e-05 -0.000646039 1.94553 
0.000675543 -2.99132e-09 -3.95308e-09 -9.19108e-09 -0.000140207 -5.30515e-05 -0.0006587 0.0201516 
0.00080875 -1.81228e-09 -3.40832e-09 -8.24677e-09 -0.000177946 -0.000178548 -0.000768461 -0.00470115 
0 0 0 0 0 0 0 0 
0.000463459 -1.58511e-09 -3.29499e-10 -8.70676e-09 -8.29532e-05 -1.72436e-05 -0.000455649 -3.15389e-17 
0 0 0 0 0 0 0 0 
0 0 0 0 0 0 0 0 
7.31888e-05 -2.87695e-10 9.15382e-11 -1.50264e-09 -1.37382e-05 4.37118e-06 -7.17548e-05 -3.83715e-18 
0.00134246 -2.27072e-09 1.12335e-09 -9.22826e-09 -0.000318541 0.000157586 -0.00129456 -1.08215e-15 
0.000302893 -5.54377e-10 6.64663e-10 -2.16448e-09 -7.20332e-05 8.63632e-05 -0.000281242 -1.30512e-17 
0 0 0 0 0 0 0 0 
7.79153e-05 -2.04183e-10 2.08081e-10 -8.09201e-10 -1.84964e-05 1.88495e-05 -7.33033e-05 -5.45934e-18 
0.000135719 -3.15705e-10 3.0183e-10 -1.45376e-09 -2.8227e-05 2.69864e-05 -0.00012998 -1.79612e-18 
0.000333139 -1.67523e-10 6.11023e-10 -3.61883e-09 -6.61308e-05 2.76066e-05 -0.00032534 -0.0188641 
0.00115089 4.64236e-10 3.07905e-09 -2.03077e-08 -0.000222831 0.000111135 -0.00112363 -0.000935032 
0.000393012 -3.9512e-09 1.02444e-09 -2.70706e-08 -6.82362e-05 4.2097e-06 -0.00038702 0.00792014 
0.000956551 -5.25498e-09 -4.22185e-10 -2.26309e-08 -0.000169644 6.8165e-05 -0.000938917 -0.0116042 
0.000501142 -1.95877e-10 2.11966e-09 -3.28911e-11 -2.81967e-05 0.000470906 0.000169101 -0.0131858 
0.00225088 -5.05896e-10 9.90154e-09 3.04055e-09 -0.000109806 0.00214915 0.000659959 7.63053e-17 
0 0 0 0 0 0 0 0 
0.000220462 -7.21346e-11 2.12023e-09 8.92498e-10 -6.90965e-06 0.000203093 8.54909e-05 -3.84853e-18 
0.000325965 -1.12932e-11 9.09424e-09 7.07873e-10 -4.03563e-07 0.000324982 2.52958e-05 4.30721e-18 
0.00107524 -2.74066e-10 3.69612e-09 1.91824e-09 -7.06132e-05 0.000952308 0.000494235 1.24221e-16 
0.000399014 -8.3613e-10 2.22356e-09 2.75604e-09 -2.06718e-05 0.000367093 0.000155007 0.0172659 
0.00395688 -8.77003e-10 1.75894e-08 1.01908e-08 -0.000170549 0.00342058 0.00198178 -1.00009e-15 
0.000302604 -1.2375e-10 2.24411e-09 8.83693e-10 -1.55061e-05 0.00028119 0.000110728 0 
0 0 0 0 0 0 0 0 
0.000228848 -6.33804e-11 2.2396e-09 8.51854e-10 -6.05117e-06 0.000213823 8.13297e-05 -9.58972e-19 
0.000233535 -3.31861e-11 1.79639e-09 5.31682e-10 -4.13624e-06 0.000223897 6.62675e-05 -3.50533e-17 
0 0 0 0 0 0 0 0 
0.000170683 -2.12008e-11 2.81442e-09 4.63419e-10 -1.26862e-06 0.000168411 2.77304e-05 3.54614e-17 
0.000501796 -5.51165e-09 1.21474e-08 2.54051e-09 -1.82421e-06 0.00049545 7.95346e-05 0.429012 
0.000606735 -2.22871e-10 4.07628e-09 2.90311e-09 -2.69942e-05 0.000493719 0.000351625 -1.52071e-16 
0 0 0 0 0 0 0 0 
0.000255921 -4.81955e-11 1.26899e-09 4.89067e-10 -9.06382e-06 0.00023865 9.19758e-05 -3.77795e-18 
0 0 0 0 0 0 0 0 
0 0 0 0 0 0 0 0 
0.000367072 -9.78708e-11 3.95683e-09 -9.38367e-10 -8.83181e-06 0.000357062 -8.46777e-05 -7.25118e-18 
0.000757978 -2.06651e-09 8.13852e-09 -2.11082e-09 -1.50829e-05 0.000741075 -0.000158463 -0.000942436 
0 0 0 0 0 0 0 0 
0.00616511 -3.16377e-09 4.07058e-08 -2.4105e-08 -0.000411382 0.00529293 -0.00313436 -2.0061e-15 
0.000453062 -5.41085e-10 7.54825e-09 -7.80987e-10 -1.52305e-06 0.000449114 -5.96621e-05 -0.000573971 
0.00395673 -5.64882e-10 3.16947e-08 -8.32459e-09 -6.81959e-05 0.00382637 -0.00100499 1.92078e-15 
0.000331019 -9.09821e-10 3.17574e-09 -1.476e-09 -8.67222e-06 0.000310966 -0.000113129 -0.0078618 
0.00116605 4.32731e-10 1.03612e-08 -6.01642e-09 -4.43697e-05 0.00100633 -0.000587357 0.0158995 
0.000170658 -7.6255e-11 1.47057e-09 -9.3817e-10 -7.45328e-06 0.000143735 -9.16982e-05 -7.85401e-18 
0 0 0 0 0 0 0 0 
0.00180938 -3.67092e-10 6.92984e-09 -2.36198e-09 -9.06091e-05 0.00171049 -0.000583004 -6.34685e-16 
0.000895889 -2.05483e-10 3.41763e-09 -1.2461e-09 -5.05254e-05 0.000840347 -0.000306399 2.96372e-17 
0.000545885 9.05362e-10 1.05418e-08 -2.08833e-09 -1.49154e-06 0.00054445 -3.95269e-05 0.037655 
0.000215583 2.75168e-10 2.01433e-09 -6.27576e-10 -5.36909e-06 0.000209498 -5.05771e-05 0.0320221 
0.00611371 -1.55833e-09 2.10157e-08 -1.09069e-08 -0.000401505 0.00541472 -0.00281017 -2.65004e-15 
0 0 0 0 0 0 0 0 
0.00432976 -2.18123e-10 1.27089e-09 -4.25718e-09 -0.000212316 0.00123705 -0.00414384 2.34646e-16 
0.000663888 -1.01993e-10 1.2784e-09 -7.11316e-09 -1.68352e-05 0.000196813 -0.000633821 0.012244 
0.000641959 -4.57214e-09 2.1247e-09 -1.21988e-08 -7.85513e-06 8.60192e-05 -0.000636122 0.683 
0.00114433 -5.98891e-10 5.64793e-09 -6.62055e-09 -7.85663e-05 0.000740931 -0.000868526 6.85195e-16 
0.00176083 -4.06831e-10 2.73946e-09 -6.48768e-09 -0.000101553 0.000683822 -0.00161945 7.52178e-17 
0 0 0 0 0 0 0 0 
0 0 0 0 0 0 0 0 
0.000390602 6.39147e-10 6.19893e-10 -3.12757e-09 -1.59723e-05 0.000150344 -0.000360155 0.0461385 
0 0 0 0 0 0 0 0 
0.00119695 -9.59555e-10 -1.92953e-09 -1.40287e-08 -2.51789e-05 0.000324651 -0.00115181 1.72937 
0 0 0 0 0 0 0 0 
0.0011436 -3.37519e-09 1.08384e-08 -1.69786e-08 -1.21846e-05 0.000255772 -0.00111456 1.24777 
0 0 0 0 0 0 0 0 
0 0 0 0 0 0 0 0 
0.00119644 -2.32029e-09 4.90818e-09 -1.86291e-08 -1.84693e-05 0.00036725 -0.00113854 -0.00142617 
0 0 0 0 0 0 0 0 
7.0755e-05 1.84391e-13 -1.7156e-12 -4.11921e-10 3.16723e-08 -2.94683e-07 -7.07544e-05 -1.38023e-17 
0.000379224 -1.93909e-10 -1.57452e-09 -3.25189e-09 -1.41979e-05 -9.64674e-05 -0.000366475 0.0644757 
0.000139566 1.30732e-09 -1.23636e-09 -2.2752e-09 -9.85463e-07 -1.81276e-05 -0.00013838 0.000359148 
0.000385137 -8.64579e-11 -1.03279e-09 -4.0713e-09 -7.92597e-06 -9.46805e-05 -0.000373234 -7.36647e-17 
0.000685796 -6.60208e-09 -3.14553e-09 -6.68229e-09 -1.70564e-05 -0.000185994 -0.000659873 0.926346 
0.000651965 5.59273e-10 -1.25765e-09 -3.21615e-09 -2.68493e-05 -0.000259898 -0.00059732 0.109009 
0.000502993 -2.59831e-10 -2.13862e-09 -3.18408e-09 -3.39955e-05 -0.000279812 -0.000416596 -1.05134e-17 
0 0 0 0 0 0 0 0 
0.000581718 -1.28233e-10 -1.78426e-09 -9.80885e-09 -7.48153e-06 -0.000104099 -0.000572279 -9.3763e-17 
0.000921511 -2.59759e-10 -3.73056e-09 -8.8624e-09 -2.4885e-05 -0.000357389 -0.000849021 -2.30941e-17 
0 0 0 0 0 0 0 0 
0.000389968 -9.67282e-10 -1.36255e-09 -2.74087e-09 -1.59463e-05 -0.0001501 -0.000359571 -0.141341 
0.000486219 -4.57865e-10 -1.58341e-09 -2.90425e-09 -2.39108e-05 -0.00026341 -0.000407986 -0.00318315 
0 0 0 0 0 0 0 0 
0 0 0 0 0 0 0 0 
0.000365336 9.21936e-10 1.96529e-09 -6.56378e-09 -1.58324e-06 -3.84493e-05 -0.000363303 0.0721825 
0.00027523 -1.011e-10 -1.31692e-09 -1.8491e-09 -1.22452e-05 -0.000159506 -0.000223963 1.94651e-17 
0 0 0 0 0 0 0 0 
0.000129777 -5.52796e-11 -6.38914e-10 -6.14415e-10 -8.07771e-06 -9.33611e-05 -8.97811e-05 -1.76127e-17 
0 0 0 0 0 0 0 0 
0.000582053 -7.51739e-10 -5.62533e-09 -3.02615e-09 -1.7199e-05 -0.000555628 -0.000172533 0.0460639 
0.000413954 -6.67849e-11 -6.98004e-09 -1.26969e-09 -3.89659e-06 -0.000407253 -7.40806e-05 3.22323e-18 
0.000301356 -1.5567e-10 -1.90766e-09 -1.2813e-09 -2.03675e-05 -0.000249593 -0.000167642 -8.41072e-17 
0.00117017 -4.87831e-10 -7.92166e-09 -4.36266e-09 -6.30303e-05 -0.00102352 -0.000563678 3.32232e-16 
0.000627023 -2.4464e-10 -5.5486e-09 -3.23849e-09 -2.38591e-05 -0.00054114 -0.000315842 0 
0 0 0 0 0 0 0 0 
0.000318079 -1.04171e-10 -3.1178e-09 -1.24389e-09 -9.8662e-06 -0.000295293 -0.000117811 6.08844e-17 
0 0 0 0 0 0 0 0 
0 0 0 0 0 0 0 0 
0.000431768 -4.83568e-11 -3.65842e-09 -6.96595e-10 -5.6059e-06 -0.000424112 -8.07547e-05 3.72614e-17 
0.000439095 -3.90308e-09 -7.28226e-09 -7.46683e-10 -3.41486e-06 -0.000430815 -8.48036e-05 0.665752 
0.00150573 -1.69128e-09 -3.55572e-08 -9.08443e-10 -4.14346e-08 -0.00150559 -2.03777e-05 0.0241985 
0 0 0 0 0 0 0 0 
0 0 0 0 0 0 0 0 
7.32556e-05 -9.16682e-10 -1.86394e-09 5.09344e-10 -8.76175e-08 -7.29691e-05 -6.47144e-06 0.0270282 
0.000131988 0 -9.89909e-10 6.30228e-12 1.64129e-23 -0.000131985 8.40287e-07 0 
0.000326267 -1.93326e-11 -9.10266e-09 7.08529e-10 -6.90848e-07 -0.000325283 2.53192e-05 3.19451e-17 
0.000432652 -5.05572e-11 -4.00205e-09 7.15483e-10 -5.37989e-06 -0.000425866 7.61358e-05 -1.71014e-17 
0.000997229 -2.63493e-10 -9.42919e-09 4.09965e-09 -2.55475e-05 -0.000914229 0.000397491 0 
3.10999e-05 -8.9096e-12 -4.36741e-10 1.69487e-10 -5.91362e-07 -2.8988e-05 1.12494e-05 0 
0 0 0 0 0 0 0 0 
0 0 0 0 0 0 0 0 
0.000585297 -1.31619e-10 -9.48114e-09 2.17574e-09 -7.91865e-06 -0.000570417 0.0001309 -1.95794e-16 
0.000289005 -8.26104e-11 -2.67867e-09 1.29213e-09 -8.02467e-06 -0.000260203 0.000125516 0 
0.000199433 -6.6202e-11 -1.88148e-09 8.70835e-10 -6.36498e-06 -0.000180895 8.37262e-05 1.15885e-17 
0.000206133 9.91543e-10 -1.37282e-09 6.02088e-10 -7.30054e-06 -0.000192222 7.4082e-05 0.0538798 
0 0 0 0 0 0 0 0 
0.00236338 -9.58611e-09 -1.54825e-08 9.90021e-09 -0.00011042 -0.0021526 0.000969367 3.23941 
0.000311054 -1.24891e-09 -1.5785e-09 2.16333e-09 -1.83008e-05 -0.000279484 0.000135308 0.0735851 
0.000275543 -5.13525e-09 -7.78252e-09 -4.92417e-10 -6.77937e-07 -0.000274066 2.84859e-05 0.214138 
2.9939e-05 -5.66969e-12 -3.48698e-10 1.24658e-10 -4.58332e-07 -2.81884e-05 1.00772e-05 1.62395e-18 
0.000746312 -1.575e-09 -3.97905e-09 2.32354e-09 -4.21952e-05 -0.000571365 0.000478271 -0.0228632 
0.00674582 -1.50847e-09 -9.04657e-09 2.51925e-08 -0.000379553 -0.00227626 0.00633883 1.29398e-15 
0.000299007 -8.68279e-11 -7.3746e-10 2.32344e-09 -1.06437e-05 -9.04003e-05 0.000284815 -3.15205e-16 
0.00220836 -6.14475e-09 -8.96754e-09 1.97914e-08 -5.49992e-05 -0.000518093 0.00214602 2.75505 
0.000142638 -1.3406e-09 -8.44342e-10 2.70361e-09 -9.80206e-07 -1.32657e-05 0.000142017 0.0227647 
0.000179993 -6.94806e-13 -8.59447e-12 1.34995e-09 -9.26389e-08 -1.14591e-06 0.000179989 0 
0.000534716 -1.36293e-10 -9.53937e-10 1.83808e-09 -3.51158e-05 -0.000245782 0.000473581 2.07034e-17 
0 0 0 0 0 0 0 0 
0.00165049 -5.44174e-10 -5.19111e-09 1.01587e-08 -7.86395e-05 -0.000750176 0.00146805 -7.43182e-16 
0.00120767 -4.40457e-10 -3.52675e-09 8.95606e-09 -5.52046e-05 -0.000442025 0.00112251 3.2228e-16 
0.000497145 -1.6041e-10 -1.47059e-09 3.66145e-09 -2.01943e-05 -0.000185135 0.000460945 0 
0.00250106 -5.88482e-10 -9.30984e-09 2.44764e-08 -5.619e-05 -0.000888932 0.00233708 2.94625e-15 
0.000221669 -5.08962e-11 -7.31729e-10 2.22114e-09 -4.82322e-06 -6.93429e-05 0.000210488 -1.21838e-16 
0.00105818 -2.01426e-10 -2.96846e-09 1.13019e-08 -1.82379e-05 -0.000268777 0.00102332 0 
0 0 0 0 0 0 0 0 
0 0 0 0 0 0 0 0 
0.00160537 -4.72516e-10 -3.97974e-09 2.00335e-08 -3.7129e-05 -0.000312717 0.00157418 -1.42698e-15 
0.000142269 -1.30778e-11 -5.83558e-10 3.47164e-09 -5.28512e-07 -2.35834e-05 0.000140299 1.29895e-17 
7.5294e-05 -1.80579e-11 -3.74692e-10 8.52574e-10 -1.45971e-06 -3.02882e-05 6.89179e-05 6.49548e-18 
0.00084031 2.71487e-10 1.34422e-09 3.65581e-09 -4.09932e-05 0.000246379 0.000802332 -0.0480828 
0.0011298 -4.88467e-09 5.25603e-09 1.75714e-08 -8.00419e-06 0.000222541 0.00110764 0.560481 
0.000158632 -3.88327e-11 3.54421e-10 1.99791e-09 -3.03532e-06 2.77029e-05 0.000156165 3.14043e-17 
0.00238625 -1.33376e-09 6.79085e-09 2.95894e-08 -5.51889e-05 0.000464827 0.00233988 -0.0774086 
9.02709e-05 -3.86073e-11 4.66237e-10 7.98816e-10 -3.76473e-06 4.54643e-05 7.78952e-05 -9.79457e-19 
0 0 0 0 0 0 0 0 
0 0 0 0 0 0 0 0 
0 0 0 0 0 0 0 0 
0.000265915 -3.0727e-10 3.57095e-10 4.45668e-09 -3.71502e-06 6.75455e-05 0.000257167 0.0709759 
0.000534534 -1.75059e-10 2.09036e-09 5.23948e-09 -1.65802e-05 0.000197981 0.000496241 1.52211e-17 
8.26299e-05 -2.61029e-11 1.88947e-10 6.52685e-10 -3.17195e-06 2.29603e-05 7.93124e-05 -1.22056e-18 
0.000889915 -3.97641e-10 4.8922e-09 7.66845e-09 -3.88661e-05 0.000478172 0.000749527 0 
0.000363258 2.03171e-09 4.7758e-10 3.03002e-09 -1.66051e-05 0.000132958 0.000337643 0.10459 
0.000718799 -6.46832e-10 2.07861e-09 5.27258e-09 -4.14554e-05 0.000279146 0.000661083 -0.00638144 
0.000374847 -4.01321e-11 1.75034e-09 1.08993e-08 -1.36274e-06 5.94352e-05 0.000370102 8.7314e-17 
0.000506158 -1.22668e-10 1.15554e-09 4.78641e-09 -1.26058e-05 0.000118748 0.00049187 8.25758e-18 
0.000828208 -2.11103e-10 1.47753e-09 2.84695e-09 -5.43909e-05 0.000380686 0.000733517 0 
0.000228047 -2.87922e-09 2.10587e-09 -6.84375e-08 0 0 -0.000228047 0.00629198 
0 0 0 0 0 0 0 0 
0.000476794 -1.53117e-09 1.2642e-08 1.02048e-09 0 0.000474013 5.14176e-05 -0.0107474 
0.00086145 -7.79077e-09 1.66709e-08 1.57372e-08 0 0.000649854 0.000565497 0.449357 
0.00137585 0 3.09533e-08 3.30034e-08 0 0.000941203 0.00100354 -1.58819e-16 
0.000362452 0 1.16596e-08 2.47774e-09 0 0.000354535 7.53414e-05 0 
0.00129461 -5.19335e-09 5.54604e-09 -4.22299e-08 0 0.00020462 -0.00127833 0.372193 
0.000584523 0 1.33373e-08 -1.38436e-08 0 0.00040555 -0.000420946 1.22168e-18 
0.000227828 0 7.34914e-09 -1.45898e-09 0 0.000223467 -4.43635e-05 -2.44337e-18 
0.000750054 -3.35414e-09 1.58921e-08 -1.43605e-08 0 0.000334829 -0.000671171 0.849983 
0.000392183 -8.32153e-10 8.98797e-09 -5.29966e-09 0 0.000344173 -0.000188023 0.0178815 
0.000483424 -3.68374e-10 8.58768e-11 -7.79833e-09 0 -3.09112e-05 -0.000482435 0.0334112 
0 0 0 0 0 0 0 0 
0 0 0 0 0 0 0 0 
0.000285331 0 -6.19805e-09 -4.37599e-09 0 -0.00023309 -0.000164568 -6.04381e-18 
0.000478778 0 -1.07713e-08 -1.14848e-08 0 -0.000327527 -0.00034922 -2.35174e-17 
0.000558176 -6.48491e-10 -1.81077e-08 -3.10059e-09 0 -0.000545984 -0.000116026 -0.00360992 
0.00101722 0 -5.28749e-09 3.30328e-08 0 -0.000160778 0.00100444 7.23237e-16 
0.001682 -2.93257e-09 -3.84509e-08 3.97665e-08 0 -0.001167 0.0012113 0.589086 
0.000467017 -1.29017e-09 -1.53107e-08 1.75168e-09 0 -0.000458078 9.09392e-05 -0.0016734 
0.00102475 -8.99219e-09 -7.93142e-09 2.61326e-08 0 -0.000362339 0.000958551 0.576555 
0.00123779 0 -2.71399e-08 1.86209e-08 0 -0.00102065 0.000700277 -1.99445e-16 
0.000657846 5.67892e-10 -1.91319e-09 -2.00213e-09 0 -0.000657355 2.54192e-05 -0.255373 
0 0 0 0 0 0 0 0 
0.00124791 -1.4203e-08 1.31694e-08 -2.08159e-08 -0.000623354 0.000577988 -0.000913585 0 
0.00198697 -3.37921e-08 3.1879e-08 7.65966e-09 -0.000992529 0.00168372 0.000357804 1.30492 
1.93109e-05 -2.19786e-10 5.51904e-11 3.77153e-10 -9.64616e-06 2.42224e-06 1.65528e-05 4.40835e-19 
0.00103899 -1.06365e-08 -1.79846e-08 1.12858e-08 -0.000518995 -0.000789895 0.000431522 0.0119513 
0.000318833 -3.14633e-09 -4.75612e-09 -4.54507e-09 -0.000159263 -0.000208362 -0.000181314 0.0161 
0 0 0 0 0 0 0 0 
0 0 0 0 0 0 0 0 
0 0 0 0 0 0 0 0 
0 0 0 0 0 0 0 0 
0 0 0 0 0 0 0 0 
0 0 0 0 0 0 0 0 
0 0 0 0 0 0 0 0 
0 0 0 0 0 0 0 0 
0 0 0 0 0 0 0 0 
0 0 0 0 0 0 0 0 
0 0 0 0 0 0 0 0 
0 0 0 0 0 0 0 0 
0 0 0 0 0 0 0 0 
0 0 0 0 0 0 0 0 
0 0 0 0 0 0 0 0 
0 0 0 0 0 0 0 0 
0 0 0 0 0 0 0 0 
0 0 0 0 0 0 0 0 
0 0 0 0 0 0 0 0 
0.0205978 3.31082e-09 2.04782e-08 8.95106e-09 0.00301845 0.0186699 0.00816063 -4.68858e-15 
0 0 0 0 0 0 0 0 
0 0 0 0 0 0 0 0 
0 0 0 0 0 0 0 0 
0 0 0 0 0 0 0 0 