ITEM: TIMESTEP
310
ITEM: NUMBER OF SURFS
6916
ITEM: BOX BOUNDS oo rr rr
-0.35 0.35
-0.25 0.25
-0.25 0.25
ITEM: SURFS f_save[1] f_save[2] f_save[3] f_save[4] f_save[5] f_save[6] f_save[7] f_save[8] 
0.00462346 -3.46904e-08 2.49406e-09 -3.47603e-10 -0.00462346 0 0 3.6061 
0 0 0 0 0 0 0 0 
0 0 0 0 0 0 0 0 
0 0 0 0 0 0 0 0 
0.00879003 -2.14257e-08 0 0 -0.00879003 0 0 0 
0.00680452 -1.6586e-08 0 0 -0.00680452 0 0 0 
0 0 0 0 0 0 0 0 
0.00748936 -1.77873e-08 0 0 -0.00748936 0 0 0 
0.0106503 -2.52945e-08 0 0 -0.0106503 0 0 0 
0 0 0 0 0 0 0 0 
0 0 0 0 0 0 0 0 
0.00740952 -1.80607e-08 0 0 -0.00740952 0 0 0 
0.0160129 -3.90316e-08 0 0 -0.0160129 0 0 0 
0.00494813 -1.17518e-08 0 0 -0.00494813 0 0 0 
0.00760031 -1.80508e-08 0 0 -0.00760031 0 0 0 
0 0 0 0 0 0 0 0 
0 0 0 0 0 0 0 0 
0.00709904 -1.68602e-08 0 0 -0.00709904 0 0 0 
0 0 0 0 0 0 0 0 
0 0 0 0 0 0 0 0 
0.0055671 -1.32219e-08 0 0 -0.0055671 0 0 0 
0 0 0 0 0 0 0 0 
0 0 0 0 0 0 0 0 
0.0027221 -6.46501e-09 0 0 -0.0027221 0 0 0 
0.00365773 -8.68713e-09 0 0 -0.00365773 0 0 0 
0 0 0 0 0 0 0 0 
0 0 0 0 0 0 0 0 
0.00347078 -8.2431e-09 0 0 -0.00347078 0 0 0 
0 0 0 0 0 0 0 0 
0.00448216 -1.12055e-08 0 0 -0.00448216 0 0 4.28003e-15 
0.00385383 -1.83057e-07 -8.71113e-10 -2.36279e-09 -0.00385383 0 0 0.475239 
0.00473822 -4.07488e-07 2.28732e-09 -2.09612e-09 -0.00473822 0 0 0.75058 
0.00207513 -9.85688e-08 0 0 -0.00207513 0 0 0 
0.00719097 -1.79774e-08 0 0 -0.00719097 0 0 0 
0 0 0 0 0 0 0 0 
0.000437339 1.03868e-09 0 0 0.000437339 0 0 0 
0.000447804 1.06354e-09 0 0 0.000447804 0 0 0 
0.00129764 1.5815e-09 0 0 0.00129764 0 0 0 
0 0 0 0 0 0 0 0 
0 0 0 0 0 0 0 0 
0 0 0 0 0 0 0 0 
0 0 0 0 0 0 0 0 
0 0 0 0 0 0 0 0 
0 0 0 0 0 0 0 0 
0.000335707 7.97307e-10 0 0 0.000335707 0 0 0 
0 0 0 0 0 0 0 0 
0 0 0 0 0 0 0 0 
0.000418984 9.95087e-10 0 0 0.000418984 0 0 0 
0 0 0 0 0 0 0 0 
0 0 0 0 0 0 0 0 
0.000759343 1.8509e-09 0 0 0.000759343 0 0 0 
0 0 0 0 0 0 0 0 
0 0 0 0 0 0 0 0 
0 0 0 0 0 0 0 0 
0 0 0 0 0 0 0 0 
0.000766271 1.86779e-09 0 0 0.000766271 0 0 0 
0.000763957 1.86215e-09 0 0 0.000763957 0 0 0 
0.000451475 1.10047e-09 -6.56278e-10 1.2524e-09 0.000451475 0 0 -0.0900138 
0 0 0 0 0 0 0 0 
0 0 0 0 0 0 0 0 
0.000267877 6.52951e-10 0 0 0.000267877 0 0 0 
0 0 0 0 0 0 0 0 
1.25398e-05 -3.02489e-07 2.50914e-07 2.57165e-07 0 8.86699e-06 8.86699e-06 0.0185123 
1.24644e-05 -1.73764e-07 -1.09607e-07 -1.17786e-07 0 -8.81368e-06 -8.81369e-06 0.0233381 
0.00025396 -6.92303e-09 1.44757e-07 2.41989e-09 0 0.00025396 0 0.0195913 
0.000220517 -9.01772e-09 -1.25695e-07 -5.50904e-09 0 -0.000220517 0 0.0388259 
0.000168698 4.09297e-09 9.6158e-08 -5.54786e-10 0 0.000168698 0 0.00161134 
0.000257996 -8.70901e-09 -1.47058e-07 -2.02166e-09 0 -0.000257996 0 0.0231763 
0.000228075 2.79144e-09 1.30003e-07 3.99515e-09 0 0.000228075 0 -0.00199697 
0.000279596 -1.33419e-08 -1.47026e-09 1.5937e-07 0 0 0.000279596 0.0389259 
0.000226167 -9.23506e-09 2.34651e-09 1.32308e-07 0 0 0.000226167 0.0466373 
0.000216927 5.85191e-09 2.09421e-09 -1.26902e-07 0 0 -0.000216927 -0.00113295 
0.000241718 7.29288e-09 4.56669e-09 1.41405e-07 0 0 0.000241718 -0.00241827 
0.000147921 -4.11106e-09 8.43152e-08 1.17182e-09 0 0.000147921 0 0.0191579 
7.73326e-05 -7.19313e-09 4.52396e-08 -5.43571e-09 0 7.73326e-05 0 0.0297669 
0.00014961 -1.34341e-08 -1.66514e-09 -8.52776e-08 0 0 -0.00014961 0.0558897 
0.000217845 -1.27739e-10 1.24172e-07 -2.35021e-09 0 0.000217845 0 0.00225055 
0.000182947 -1.30137e-08 -1.0428e-07 2.99309e-09 0 -0.000182947 0 0.0475798 
0.000238367 -1.67955e-08 -4.02271e-09 1.35869e-07 0 0 0.000238367 0.0627095 
0.000223283 3.64186e-09 -5.39568e-09 1.27271e-07 0 0 0.000223283 0.00476152 
0.000148009 -1.04999e-08 1.46895e-09 -8.43649e-08 0 0 -0.000148009 0.0306587 
0.000159756 -1.3727e-09 -9.10607e-08 -6.3694e-09 0 -0.000159756 0 0.0105422 
0.000172403 -8.28557e-09 9.82696e-08 -1.98994e-09 0 0.000172403 0 0.0336945 
0.000189621 3.29502e-09 1.14754e-09 -1.08084e-07 0 0 -0.000189621 -0.00225958 
0.000170655 -6.97521e-09 9.98332e-08 -2.66294e-09 0 0.000170655 0 0.0105904 
0.00013393 2.37933e-09 -1.23447e-09 7.8349e-08 0 0 0.00013393 -0.000606887 
0.000242796 3.68867e-09 -1.42036e-07 -1.57205e-09 0 -0.000242796 0 -0.00116306 
8.8435e-05 2.56006e-09 -1.53502e-09 -5.04079e-08 0 0 -8.8435e-05 0.000253556 
0.000177054 1.31005e-09 -1.03576e-07 1.02952e-09 0 -0.000177054 0 -0.00075215 
0.000197515 -1.75113e-08 4.9542e-09 1.15546e-07 0 0 0.000197515 0.0534803 
0.000134211 -4.73173e-09 1.83739e-09 -7.65001e-08 0 0 -0.000134211 0.0260075 
0.000112191 -2.54885e-09 -6.56317e-08 -4.76608e-09 0 -0.000112191 0 0.0183896 
0.000199211 1.50654e-09 -1.1355e-07 -5.38604e-09 0 -0.000199211 0 0.00101625 
0.000159226 2.41437e-10 4.80558e-10 4.65736e-08 0 0 0.000159226 -0.00131443 
0.000113345 -4.14813e-09 -2.64082e-10 6.46066e-08 0 0 0.000113345 0.0183716 
0.000169666 -1.37061e-08 2.47957e-09 -9.67099e-08 0 0 -0.000169666 0.0524567 
9.74868e-05 -9.13317e-09 -2.3019e-09 5.55675e-08 0 0 9.74868e-05 0.0308279 
0.000102917 -8.93287e-09 -5.86626e-08 2.0664e-09 0 -0.000102917 0 0.0325733 
0.000145221 -5.62817e-09 3.98461e-10 -8.27761e-08 0 2.84741e-11 -0.000145221 0.0256445 
0.000174444 1.31174e-09 -9.94333e-08 4.6965e-09 0 -0.000174444 0 -0.000262503 
9.91101e-05 -1.67113e-08 -5.64928e-08 1.6191e-09 0 -9.91101e-05 0 0.0471332 
6.79182e-05 4.29112e-11 -1.24612e-09 3.87134e-08 0 0 6.79182e-05 -0.000387001 
0.000202905 -1.42623e-09 1.15656e-07 2.02067e-09 0 0.000202905 0 0.0120365 
6.3135e-05 2.09038e-09 1.48078e-09 -3.5987e-08 0 0 -6.3135e-05 -0.00360103 
0.000222314 -8.16246e-09 -1.26719e-07 3.32325e-10 0 -0.000222314 0 0.0197613 
0.000164316 -9.24995e-09 3.63031e-09 -9.366e-08 0 0 -0.000164316 0.0309429 
0.000272163 -7.37236e-10 1.93903e-08 1.27822e-09 -5.17757e-07 0.000272162 0 -0.00727444 
0.000635364 1.22692e-10 1.15673e-08 -3.50883e-10 -4.30926e-05 0.000633245 -2.88289e-05 -0.0475666 
0.000247751 -4.37963e-11 3.99378e-09 -1.3858e-10 -2.71507e-06 0.000247587 -8.59102e-06 -1.03646e-17 
0.000458345 7.37105e-10 8.2286e-09 -1.29569e-09 -1.42211e-05 0.000457492 -2.40627e-05 -0.0324173 
0.000225705 -6.54375e-11 3.72064e-09 -4.2084e-11 -3.96877e-06 0.000225656 -2.55239e-06 8.45002e-18 
0.000576774 -1.82937e-11 1.08145e-09 0 -9.7552e-06 0.000576692 0 -1.48592e-17 
0.00033537 -1.87137e-10 8.08542e-09 -3.7837e-10 -1.77445e-07 0.00033534 4.46686e-06 -0.00178337 
0.00065801 -6.65546e-10 1.21404e-08 2.29217e-10 -2.51813e-05 0.000657399 1.30115e-05 -0.0592072 
0.000252512 -4.91512e-11 4.07053e-09 1.41243e-10 -3.047e-06 0.000252342 8.756e-06 -1.20919e-17 
0.000254385 -9.23868e-11 1.81249e-08 9.37424e-10 -1.21174e-07 0.000254385 0 -0.0190914 
0.00013773 -3.1696e-10 -6.44168e-10 9.81272e-09 -2.62015e-07 0 0.00013773 -0.00264532 
0.000318283 -1.6593e-09 1.17791e-09 5.63189e-09 -2.15871e-05 1.44417e-05 0.000317221 0.00384054 
0.000134504 -7.15477e-11 1.01134e-09 2.13522e-09 -1.47401e-06 4.66407e-06 0.000134415 0.016375 
1.92696e-05 1.78585e-10 1.30729e-10 3.46521e-10 -5.97879e-07 1.01163e-06 1.92337e-05 -0.000839841 
0.000310825 -2.37826e-10 -6.63945e-10 5.12937e-09 -5.46551e-06 3.51496e-06 0.000310757 0.00881867 
0 0 0 0 0 0 0 0 
0.000153489 -1.95655e-12 -4.92525e-11 3.69753e-09 -8.12112e-08 -2.04434e-06 0.000153475 3.10837e-18 
0.000184994 -4.22248e-12 1.53002e-10 3.42448e-09 -7.07951e-06 -3.65807e-06 0.000184823 0.0104713 
0.000240844 -4.68799e-11 -1.34716e-10 3.88243e-09 -2.9062e-06 -8.35139e-06 0.000240681 -1.90016e-17 
0.000149246 1.00517e-09 -2.00021e-09 1.06343e-08 -7.10919e-08 0 0.000149246 0.00741632 
0.000201329 2.00433e-09 -1.43486e-08 9.88423e-10 -3.83004e-07 -0.000201329 0 -0.0070832 
0.00022072 -2.71812e-10 -3.99428e-09 1.81842e-10 -1.497e-05 -0.000219984 1.00149e-05 1.38119e-17 
0.000285466 2.52645e-10 -4.59828e-09 3.55465e-10 -3.12839e-06 -0.000285277 9.89883e-06 0.00729791 
0.000260855 -1.71284e-10 -4.68476e-09 3.56365e-10 -8.09357e-06 -0.000260369 1.36946e-05 0.00563471 
0.000217625 -6.30947e-11 -3.58743e-09 4.05773e-11 -3.82668e-06 -0.000217577 2.461e-06 -3.38001e-18 
0 0 0 0 0 0 0 0 
0.000340304 -4.33792e-12 -8.1979e-09 -1.09199e-10 -1.80056e-07 -0.000340273 -4.53257e-06 1.44575e-17 
0.000198191 -1.40151e-10 -3.65889e-09 -7.2418e-11 -7.58453e-06 -0.000198007 -3.91902e-06 1.90003e-16 
0 0 0 0 0 0 0 0 
0.000221046 -2.38973e-10 -1.57494e-08 1.27966e-09 -1.05293e-07 -0.000221046 0 0.00204673 
0.000367637 -5.794e-09 1.60048e-10 -2.61832e-08 -6.99384e-07 0 -0.000367636 0.143479 
0.000434868 -5.3553e-10 -3.58269e-10 -7.86961e-09 -2.94943e-05 -1.97316e-05 -0.000433418 2.34036e-17 
0.000161681 -1.0618e-08 -8.5508e-10 -2.46367e-09 -1.77185e-06 -5.60647e-06 -0.000161575 0.963705 
3.64904e-05 -1.67439e-10 2.91434e-10 -6.68831e-10 -1.13219e-06 -1.91571e-06 -3.64224e-05 -0.000506217 
0.000330388 -8.14371e-10 -6.23894e-10 -5.42729e-09 -5.8095e-06 -3.73619e-06 -0.000330316 -0.030912 
0 0 0 0 0 0 0 0 
0.000129375 -9.61058e-09 9.25415e-10 -3.09977e-09 -6.84526e-08 1.72317e-06 -0.000129363 0.795098 
0.000376253 -2.66068e-10 1.37481e-10 -6.94617e-09 -1.43987e-05 7.44e-06 -0.000375903 -1.96035e-17 
0.000132551 -2.58009e-11 7.41427e-11 -2.13674e-09 -1.59946e-06 4.59628e-06 -0.000132462 -1.72742e-18 
0.000133629 -2.91316e-10 3.12722e-10 -9.52092e-09 -6.36528e-08 0 -0.000133629 -0.00209108 
0 0 0 0 0 0 0 0 
0 0 0 0 0 0 0 0 
0 0 0 0 0 0 0 0 
0 0 0 0 0 0 0 0 
0 0 0 0 0 0 0 0 
0 0 0 0 0 0 0 0 
0 0 0 0 0 0 0 0 
0 0 0 0 0 0 0 0 
0 0 0 0 0 0 0 0 
0 0 0 0 0 0 0 0 
0 0 0 0 0 0 0 0 
0 0 0 0 0 0 0 0 
0 0 0 0 0 0 0 0 
0 0 0 0 0 0 0 0 
0 0 0 0 0 0 0 0 
0 0 0 0 0 0 0 0 
0.000342961 -1.40342e-09 7.92006e-09 -2.12685e-10 -5.9819e-05 0.000337582 -9.06543e-06 1.90033e-17 
9.07375e-05 -2.72547e-10 1.07749e-09 -2.17474e-10 -2.18368e-05 8.63298e-05 -1.74243e-05 2.23258e-18 
0.000471253 -7.71758e-10 3.48042e-09 -2.82357e-10 -0.0001017 0.000458641 -3.72083e-05 0 
0.000717713 -2.30688e-09 1.22633e-08 -1.01752e-09 -0.000132244 0.000703008 -5.83305e-05 -2.17245e-16 
0.00059527 -1.68216e-09 1.12386e-08 -1.61772e-09 -0.000116047 0.000579983 -6.70766e-05 -0.00106145 
0.000476786 -7.2788e-10 3.27466e-09 -5.12079e-10 -0.000112696 0.000460184 -5.34316e-05 0.0338282 
8.37528e-05 -2.28376e-10 1.03067e-09 -1.55217e-10 -1.79258e-05 8.08997e-05 -1.21833e-05 -6.56155e-18 
0.000130594 -3.934e-10 1.70015e-09 -2.3413e-10 -2.91789e-05 0.000126102 -1.73657e-05 0 
0.000477406 -1.01017e-09 5.40951e-09 -1.24027e-09 -0.000111224 0.00045341 -9.98219e-05 0.0176216 
0.000379764 -1.11874e-09 4.20175e-09 -6.72205e-10 -7.28838e-05 0.000372271 -1.79525e-05 0.0306318 
0.000196927 -1.13637e-09 2.14125e-09 -1.8024e-10 -4.71938e-05 0.0001862 -4.33876e-05 -0.0350566 
8.45471e-05 -2.83515e-10 1.58834e-09 6.01092e-11 -1.48464e-05 8.31738e-05 3.14763e-06 -1.45916e-18 
0.000284462 -9.71134e-09 2.07519e-09 2.86917e-10 -5.96369e-05 0.000276815 2.71251e-05 1.05958 
0.000302407 -8.8498e-10 6.99311e-09 9.80066e-10 -5.32869e-05 0.000297465 1.11771e-05 0.0206903 
0.00108439 -2.53751e-09 9.65894e-09 1.94951e-09 -0.000270426 0.00102937 0.000207762 -1.90056e-16 
0.000694725 -1.11605e-09 4.52038e-09 6.84443e-10 -0.000164752 0.000667302 0.000101038 -2.6326e-16 
0.00063504 -3.97195e-09 6.90103e-09 3.18724e-09 -0.000144425 0.000609866 0.000102376 -0.0519036 
0.0005489 -1.53904e-09 7.20718e-09 8.92072e-10 -0.000113798 0.000532908 6.5961e-05 -7.93243e-17 
0.000483443 -1.01467e-09 4.99006e-09 4.26321e-10 -9.59953e-05 0.000472096 4.03331e-05 -1.05449e-17 
0.000171129 -4.30082e-10 3.28945e-09 -8.51786e-10 -3.07209e-05 0.000168142 8.35737e-06 0.0209853 
0.000553207 -1.82622e-09 9.74295e-09 -6.85907e-10 -0.000108242 0.000536711 7.91339e-05 0.0215992 
3.39735e-05 -8.17569e-11 3.82198e-10 6.44683e-11 -7.01185e-06 3.2779e-05 5.5291e-06 0 
0.000316276 -1.97776e-09 6.47711e-10 3.47252e-09 -5.69684e-05 2.89341e-05 0.000309755 -0.0261597 
0.000291152 -4.92473e-10 2.43632e-10 2.00142e-09 -6.90852e-05 3.41773e-05 0.000280764 0 
0.000780126 2.42762e-10 -4.57818e-10 1.40089e-08 -0.000142161 5.12691e-05 0.000765349 0.0122353 
0.000146787 -5.34736e-10 2.00128e-10 2.73395e-09 -2.81039e-05 1.05181e-05 0.000143687 -1.46449e-18 
0.000638905 -1.45096e-09 4.05593e-10 7.15399e-09 -0.0001268 3.54451e-05 0.000625192 -2.31338e-17 
0.00066297 -1.29699e-09 3.11164e-10 9.6562e-09 -0.000137598 5.20641e-05 0.00064644 0.0220703 
0.00047559 -9.50592e-09 8.17117e-10 3.17097e-09 -0.000104642 0.000104996 0.000451898 1.22889 
9.12361e-05 -1.49895e-10 8.24782e-11 6.16002e-10 -2.13913e-05 1.17703e-05 8.79084e-05 -7.95311e-18 
0.000265582 -1.00589e-09 7.08316e-10 4.95193e-09 -4.75358e-05 9.88133e-06 0.000261107 -0.00271083 
0.00101434 -1.22079e-09 2.28681e-09 9.98489e-09 -0.000240506 0.000277931 0.000945409 -0.0367505 
0.000261838 -5.12645e-10 2.39205e-10 1.98829e-09 -5.66274e-05 6.00255e-05 0.000248494 -0.0468363 
0.000217866 -7.03077e-10 -3.80073e-11 4.51665e-09 -4.08953e-05 -1.3012e-05 0.000213598 -0.0135389 
0.000446407 -7.55081e-10 -3.73548e-10 3.06867e-09 -0.000105924 -5.24021e-05 0.00043048 1.26064e-16 
0.000423737 -7.75555e-10 -9.29842e-10 3.02803e-09 -0.000100772 -0.000120819 0.000393448 3.62064e-18 
0.000187781 -2.88959e-10 -1.01628e-10 1.2527e-09 -4.20756e-05 -1.47982e-05 0.000182407 4.05745e-18 
0.000319575 -8.3747e-10 -8.53458e-10 3.31899e-09 -7.58641e-05 -7.73124e-05 0.000300658 -4.03874e-17 
0.000429104 -9.98163e-10 -9.54295e-10 4.59634e-09 -8.92453e-05 -8.5323e-05 0.000410957 -7.47418e-18 
0.000237292 -5.11568e-10 -2.13556e-10 2.51674e-09 -4.71043e-05 -1.96639e-05 0.000231737 0 
0.000130591 -1.1612e-09 3.61606e-10 2.13389e-09 -2.52846e-05 -1.26104e-05 0.000127498 -0.00665641 
0.000429963 -8.39288e-09 -5.80637e-10 2.8904e-08 -7.46518e-05 -4.6055e-06 0.000423408 0.100421 
0.000445918 -2.34314e-09 -1.62577e-09 1.04369e-08 -7.90836e-05 -3.17767e-05 0.000437698 -0.0162682 
0.000472639 -2.00196e-09 -1.09483e-08 -1.4048e-09 -8.24372e-05 -0.000465226 1.24932e-05 -0.0048857 
0.000406447 -1.22084e-09 -4.82647e-09 9.74145e-10 -9.78152e-05 -0.000386703 7.80498e-05 -6.25122e-17 
0.000343986 -5.63336e-10 -2.54049e-09 2.06103e-10 -7.42351e-05 -0.00033478 2.71598e-05 3.67198e-17 
0.000276218 -8.87821e-10 -4.71964e-09 3.91601e-10 -5.08954e-05 -0.000270559 2.2449e-05 -1.75713e-17 
0.000343075 -6.24918e-10 -6.57454e-09 6.87081e-10 -6.6882e-05 -0.000334265 3.86586e-05 0.00105679 
6.26873e-05 -1.05354e-10 -4.30203e-10 4.99506e-11 -1.48172e-05 -6.05045e-05 7.02514e-06 -1.95949e-18 
0.000418714 -1.23416e-09 -5.25683e-09 -5.11548e-11 -8.96181e-05 -0.00040445 6.09093e-05 -0.0182486 
0.000270595 -1.0911e-08 -1.36142e-09 -7.83667e-10 -6.04597e-05 -0.000261288 3.59823e-05 1.2348 
0.000380619 -5.8355e-09 -3.23314e-09 2.88239e-10 -8.86752e-05 -0.000361489 7.95846e-05 0.763826 
7.05007e-05 -1.55531e-10 -7.9441e-10 3.83098e-11 -1.35304e-05 -6.91098e-05 3.33277e-06 4.84823e-18 
0.000736804 -5.56932e-10 -8.91933e-09 7.97323e-10 -0.000176576 -0.00069667 0.000162335 -0.0340118 
0.000406175 -7.15325e-10 -7.74414e-09 -3.38727e-10 -7.13238e-05 -0.000399578 -1.51216e-05 -0.00556205 
0.000102689 -5.0694e-10 -1.39479e-09 -1.0763e-10 -2.15285e-05 -9.99282e-05 -9.79196e-06 -6.70898e-05 
0.000300153 -6.41785e-10 -6.98905e-09 -8.22051e-10 -5.28899e-05 -0.000295248 -1.10939e-05 0.0131679 
0.000534 -1.24958e-09 -4.75648e-09 -9.60021e-10 -0.00013317 -0.000506906 -0.000102311 1.18785e-17 
0 0 0 0 0 0 0 0 
0.000274511 -7.9087e-10 -3.33962e-09 -5.60607e-10 -6.24312e-05 -0.000263629 -4.42542e-05 3.29949e-18 
0.000362341 -1.01595e-09 -4.75761e-09 -5.88876e-10 -7.51207e-05 -0.000351784 -4.35422e-05 -1.23622e-17 
0.000251054 -1.22276e-09 -2.51551e-09 5.46884e-10 -4.98509e-05 -0.000245162 -2.09449e-05 -0.0214305 
0.00044517 -1.52596e-09 -8.3519e-09 -4.15125e-10 -7.99162e-05 -0.000437398 -2.17406e-05 6.20211e-18 
0.000596565 -2.0561e-09 -9.92828e-09 -3.06378e-09 -0.000116726 -0.000578777 -8.53362e-05 0.00184642 
0.000382413 -9.20271e-10 -4.30209e-09 -7.25668e-10 -7.89267e-05 -0.000368967 -6.22366e-05 1.62508e-16 
0 0 0 0 0 0 0 0 
0 0 0 0 0 0 0 0 
0.000623783 -1.99172e-09 -7.18295e-10 -1.07228e-08 -0.000113671 -4.09943e-05 -0.000611967 4.81067e-17 
0.000119447 -4.30767e-10 -9.25991e-10 -2.16973e-09 -2.28694e-05 -8.55903e-06 -0.000116925 0.00710634 
0.000457887 -1.14623e-08 -1.35835e-09 -2.95269e-09 -9.08747e-05 -2.54026e-05 -0.000448059 1.34932 
0.00055495 -2.33732e-09 -2.84105e-09 -7.60863e-09 -0.000115178 -4.35812e-05 -0.000541114 0.0139761 
0.000560907 -1.2569e-09 -2.36383e-09 -5.71953e-09 -0.000123414 -0.000123832 -0.000532965 -0.00326047 
0.000537272 -8.82708e-10 -4.85693e-10 -3.62752e-09 -0.00012597 -6.93124e-05 -0.000517676 0 
0.000342339 -1.17086e-09 -2.43388e-10 -6.43134e-09 -6.12743e-05 -1.27372e-05 -0.00033657 -2.18738e-17 
0 0 0 0 0 0 0 0 
0.000390618 -9.30149e-09 -2.21073e-10 -1.05363e-09 -8.44784e-05 -8.95478e-05 -0.000370711 1.94575 
0.000269609 -1.05979e-09 3.37204e-10 -5.53534e-09 -5.06079e-05 1.61023e-05 -0.000264326 -5.32249e-18 
0.000931059 -1.57485e-09 7.79099e-10 -6.40025e-09 -0.000220924 0.000109294 -0.000897841 -7.50521e-16 
0.000210071 -3.84488e-10 4.60976e-10 -1.50117e-09 -4.99585e-05 5.98971e-05 -0.000195055 -9.05161e-18 
0 0 0 0 0 0 0 0 
5.4038e-05 -1.41611e-10 1.44314e-10 -5.6122e-10 -1.28281e-05 1.3073e-05 -5.08394e-05 -3.78632e-18 
9.4128e-05 -2.18956e-10 2.09333e-10 -1.00825e-09 -1.95768e-05 1.87164e-05 -9.01473e-05 -1.2457e-18 
0.000231048 -1.16185e-10 4.23774e-10 -2.50983e-09 -4.58649e-05 1.91465e-05 -0.000225639 -0.0130832 
0.0007982 3.2197e-10 2.13547e-09 -1.40844e-08 -0.000154544 7.70772e-05 -0.000779293 -0.00064849 
0.000319804 -2.71583e-09 1.00789e-09 -2.21142e-08 -5.55256e-05 3.42555e-06 -0.000314928 0.00669765 
0.000852681 -4.45573e-09 3.31236e-11 -2.01851e-08 -0.000151223 6.0763e-05 -0.000836961 -0.0080481 
0.000347566 -1.3585e-10 1.47009e-09 -2.28116e-11 -1.95558e-05 0.000326596 0.00011728 -0.00914499 
0.0015611 -3.50863e-10 6.8672e-09 2.10877e-09 -7.61558e-05 0.00149054 0.000457713 5.29214e-17 
0 0 0 0 0 0 0 0 
0.000252079 -8.24797e-11 2.4243e-09 1.02049e-09 -7.90059e-06 0.00023222 9.77514e-05 2.66914e-18 
0.000226073 -7.83241e-12 6.3073e-09 4.90944e-10 -2.79891e-07 0.000225391 1.75439e-05 2.98726e-18 
0.000745732 -1.90078e-10 2.56344e-09 1.33039e-09 -4.89737e-05 0.000660471 0.000342776 8.6153e-17 
0.000276735 -5.79897e-10 1.54215e-09 1.91145e-09 -1.43369e-05 0.000254597 0.000107505 0.0119747 
0.00274429 -6.08244e-10 1.21991e-08 7.0678e-09 -0.000118284 0.00237234 0.00137446 -6.93612e-16 
0.000423582 -7.45467e-10 3.1584e-09 1.11338e-09 -2.17053e-05 0.000393607 0.000154996 0.0288015 
7.83614e-05 1.61936e-10 1.62342e-10 1.39261e-09 -3.13728e-06 7.34458e-05 2.71363e-05 0.0584466 
0.000158717 -4.39574e-11 1.55327e-09 5.90802e-10 -4.19678e-06 0.000148297 5.64061e-05 -6.65094e-19 
0.000161968 -2.30162e-11 1.24588e-09 3.68747e-10 -2.86868e-06 0.000155284 4.59597e-05 -2.43112e-17 
0 0 0 0 0 0 0 0 
0.000241079 -2.99447e-11 3.97518e-09 6.54548e-10 -1.79185e-06 0.000237869 3.91673e-05 4.4603e-17 
0.00034802 -3.8226e-09 8.42478e-09 1.76197e-09 -1.26518e-06 0.000343618 5.51611e-05 0.297541 
0.0004208 -1.54572e-10 2.8271e-09 2.01345e-09 -1.87218e-05 0.000342418 0.000243869 -1.05469e-16 
0 0 0 0 0 0 0 0 
0.000482083 -9.07867e-11 2.39041e-09 9.21264e-10 -1.70737e-05 0.000449549 0.000173256 -2.35817e-17 
9.57105e-05 -2.15114e-11 4.21028e-10 -1.29289e-10 -4.66909e-06 9.13849e-05 -2.80624e-05 0 
0 0 0 0 0 0 0 0 
0.000254582 -6.78781e-11 2.74425e-09 -6.50803e-10 -6.12529e-06 0.00024764 -5.87281e-05 -5.02904e-18 
0.000525694 -1.43322e-09 5.64446e-09 -1.46396e-09 -1.04607e-05 0.000513971 -0.000109902 -0.000653625 
0 0 0 0 0 0 0 0 
0.0042758 -2.19422e-09 2.82314e-08 -1.6718e-08 -0.000285313 0.0036709 -0.00217383 -1.39133e-15 
0.00031422 -3.75269e-10 5.23508e-09 -5.41653e-10 -1.05631e-06 0.000311482 -4.13785e-05 -0.000398077 
0.00274419 -3.91773e-10 2.19818e-08 -5.77351e-09 -4.72971e-05 0.00265377 -0.000697012 1.33215e-15 
0.000369684 -6.69945e-10 3.59882e-09 -1.53165e-09 -9.6852e-06 0.00034729 -0.000126343 -0.00545254 
0.00080871 3.0012e-10 7.18596e-09 -4.17268e-09 -3.07725e-05 0.000697941 -0.00040736 0.0110271 
0.000222488 -9.94142e-11 1.91719e-09 -1.2231e-09 -9.7169e-06 0.000187389 -0.000119548 -5.44713e-18 
0 0 0 0 0 0 0 0 
0.00125489 -2.54596e-10 4.80618e-09 -1.63815e-09 -6.28418e-05 0.0011863 -0.000404342 -4.40184e-16 
0.000621342 -1.42513e-10 2.37029e-09 -8.64232e-10 -3.50418e-05 0.000582821 -0.000212503 2.05548e-17 
0.000378598 6.27913e-10 7.31126e-09 -1.44836e-09 -1.03445e-06 0.000377602 -2.74138e-05 0.0261156 
0.000149518 1.90843e-10 1.39704e-09 -4.35255e-10 -3.72372e-06 0.000145297 -3.50777e-05 0.0222089 
0.00445955 -1.1367e-09 1.53296e-08 -7.95587e-09 -0.000292872 0.00394968 -0.00204984 -1.83793e-15 
0.000828997 -1.91109e-10 1.28092e-09 -3.05369e-09 -4.77632e-05 0.000320135 -0.000763196 -1.11427e-16 
0.0030029 -1.51279e-10 8.81422e-10 -2.95256e-09 -0.000147252 0.000857955 -0.00287396 1.62739e-16 
0.000460439 -7.07369e-11 8.86629e-10 -4.93332e-09 -1.16761e-05 0.0001365 -0.000439585 0.00849179 
0.00044523 -3.171e-09 1.47358e-09 -8.46048e-09 -5.44792e-06 5.96585e-05 -0.000441181 0.473693 
0.000793647 -4.1536e-10 3.91711e-09 -4.59167e-09 -5.44895e-05 0.000513871 -0.000602365 4.75216e-16 
0.00122122 -2.82157e-10 1.89995e-09 -4.49952e-09 -7.04317e-05 0.000474263 -0.00112317 5.21672e-17 
0 0 0 0 0 0 0 0 
0 0 0 0 0 0 0 0 
0.000270901 4.43279e-10 4.29926e-10 -2.16912e-09 -1.10775e-05 0.000104271 -0.000249785 0.0319993 
0 0 0 0 0 0 0 0 
0.000830144 -6.65498e-10 -1.33822e-09 -9.72959e-09 -1.74628e-05 0.000225161 -0.000798835 1.1994 
0.000265727 -1.91621e-10 1.45612e-09 -2.61758e-09 -5.46851e-06 6.53255e-05 -0.000257514 -0.00170131 
0.000793141 -2.34086e-09 7.51697e-09 -1.17755e-08 -8.45059e-06 0.00017739 -0.000773004 0.865386 
0.00014179 1.43179e-10 1.46889e-09 -2.04818e-09 -1.0756e-06 2.79288e-05 -0.000139008 -0.0188166 
0 0 0 0 0 0 0 0 
0.000891944 -1.62469e-09 3.71133e-09 -1.38728e-08 -1.37688e-05 0.000273783 -0.000848774 -0.000989115 
0.000401315 -7.02801e-09 1.67585e-09 -9.77942e-09 -9.24027e-07 5.24937e-05 -0.000397866 0.676859 
0.000433191 1.12892e-12 -1.05036e-11 -2.52195e-09 1.93911e-07 -1.80417e-06 -0.000433187 -1.91451e-17 
0.000263011 -1.34485e-10 -1.09201e-09 -2.25534e-09 -9.84693e-06 -6.69048e-05 -0.000254168 0.044717 
9.67957e-05 9.06691e-10 -8.57472e-10 -1.57796e-09 -6.83466e-07 -1.25724e-05 -9.59733e-05 0.000249087 
0.000570869 -1.28152e-10 -1.53086e-09 -6.03468e-09 -1.17483e-05 -0.00014034 -0.000553225 -2.14578e-16 
0.000475633 -4.57886e-09 -2.18158e-09 -4.63449e-09 -1.18295e-05 -0.000128996 -0.000457654 0.642466 
0.00045217 3.87883e-10 -8.72239e-10 -2.23056e-09 -1.86213e-05 -0.000180252 -0.00041427 0.0756034 
0.00034885 -1.80205e-10 -1.48324e-09 -2.20831e-09 -2.35775e-05 -0.000194063 -0.000288929 -7.29155e-18 
0 0 0 0 0 0 0 0 
0.000624889 -6.2196e-09 -1.82245e-09 -1.04744e-08 -8.03676e-06 -0.000111825 -0.000614749 0.752373 
0.000894649 -1.21292e-09 -4.69499e-09 -8.12416e-09 -2.41596e-05 -0.000346971 -0.000824272 -0.00621604 
0 0 0 0 0 0 0 0 
0.000270462 -6.70857e-10 -9.44993e-10 -1.90092e-09 -1.10596e-05 -0.000104102 -0.00024938 -0.0980266 
0.000337217 -3.17551e-10 -1.09817e-09 -2.01424e-09 -1.65833e-05 -0.000182688 -0.000282958 -0.00220767 
0.000214879 -1.0102e-10 -9.41217e-10 -1.34388e-09 -1.32053e-05 -0.000123036 -0.000175672 1.457e-17 
0.000413549 -9.26988e-11 -5.62139e-10 -1.54176e-09 -2.33232e-05 -0.000141435 -0.00038791 7.01088e-18 
0.00032464 6.34068e-10 1.23336e-09 -5.77753e-09 -1.40688e-06 -3.41664e-05 -0.000322834 0.050062 
0.000190885 -7.01177e-11 -9.13349e-10 -1.28244e-09 -8.49265e-06 -0.000110625 -0.000155329 1.35e-17 
0 0 0 0 0 0 0 0 
0.000627302 -2.67204e-10 -3.0883e-09 -2.96988e-09 -3.9045e-05 -0.000451277 -0.000433972 -4.03104e-16 
0.000161684 -7.3715e-11 -1.4433e-09 -4.11437e-10 -7.93189e-06 -0.000155303 -4.42715e-05 0 
0.000542449 -5.65673e-10 -5.33276e-09 -2.54323e-09 -1.60287e-05 -0.000517821 -0.000160793 0.0319475 
0.00046742 -7.54108e-11 -7.88158e-09 -1.43368e-09 -4.39987e-06 -0.000459853 -8.36488e-05 -1.01612e-18 
0.000209005 -1.07965e-10 -1.32305e-09 -8.88646e-10 -1.41258e-05 -0.000173104 -0.000116268 -5.83324e-17 
0.000811569 -3.38334e-10 -5.49405e-09 -3.02571e-09 -4.37145e-05 -0.00070986 -0.000390938 2.30419e-16 
0.000434871 -1.6967e-10 -3.84822e-09 -2.24605e-09 -1.65474e-05 -0.000375307 -0.000219052 0 
0 0 0 0 0 0 0 0 
0.000220603 -7.22475e-11 -2.16235e-09 -8.62696e-10 -6.84269e-06 -0.0002048 -8.17075e-05 4.22263e-17 
0.000102221 -3.93835e-11 -9.26772e-10 -4.92959e-10 -3.83242e-06 -9.01846e-05 -4.797e-05 -1.08462e-17 
0 0 0 0 0 0 0 0 
0.00056936 -1.59063e-10 -4.98559e-09 -6.46577e-11 -7.39234e-06 -0.000559265 -0.000106489 -0.0693536 
0.00036221 -2.71445e-09 -5.99391e-09 -7.03546e-10 -2.81692e-06 -0.00035538 -6.99546e-05 0.461731 
0.00104429 -1.17298e-09 -2.46606e-08 -6.30049e-10 -2.87369e-08 -0.0010442 -1.41329e-05 0.0167828 
0 0 0 0 0 0 0 0 
0 0 0 0 0 0 0 0 
0.000116429 -4.94653e-10 -2.95256e-09 6.84868e-10 -1.39255e-07 -0.000115973 -1.02854e-05 0.00306669 
0.000707618 0 -5.30713e-09 3.3788e-11 8.79933e-23 -0.000707603 4.50497e-06 1.04027e-16 
0.000406392 -2.40803e-11 -1.13381e-08 8.8253e-10 -8.60507e-07 -0.000405166 3.15371e-05 4.10748e-17 
0.000300065 -3.50639e-11 -2.77562e-09 4.96222e-10 -3.73121e-06 -0.000295359 5.28039e-05 -1.18607e-17 
0.00185237 -4.89442e-10 -1.75149e-08 7.61516e-09 -4.7455e-05 -0.0016982 0.000738345 -3.45819e-16 
2.15693e-05 -6.17924e-12 -3.02901e-10 1.17547e-10 -4.10138e-07 -2.01046e-05 7.80203e-06 0 
0 0 0 0 0 0 0 0 
0 0 0 0 0 0 0 0 
0.000765882 -1.72228e-10 -1.24064e-08 2.84704e-09 -1.03618e-05 -0.00074641 0.000171287 -2.58173e-16 
0.000200439 -5.72943e-11 -1.85779e-09 8.96156e-10 -5.5655e-06 -0.000180463 8.70514e-05 0 
0.000285938 -9.49176e-11 -2.69759e-09 1.24857e-09 -9.12583e-06 -0.000259359 0.000120043 1.87535e-17 
0.000142963 6.87683e-10 -9.52118e-10 4.17577e-10 -5.06328e-06 -0.000133315 5.13795e-05 0.0373683 
0 0 0 0 0 0 0 0 
0.00163912 -6.64843e-09 -1.07378e-08 6.86627e-09 -7.65817e-05 -0.00149293 0.000672303 2.24669 
0.000215731 -8.66182e-10 -1.09476e-09 1.50038e-09 -1.26925e-05 -0.000193836 9.38426e-05 0.0510348 
0.000334258 -3.57139e-09 -9.37787e-09 7.21921e-11 -8.22398e-07 -0.000332466 3.4556e-05 0.148515 
2.07642e-05 -3.93221e-12 -2.41839e-10 8.64564e-11 -3.17875e-07 -1.955e-05 6.98904e-06 1.12629e-18 
0.000517603 -1.09234e-09 -2.75966e-09 1.61149e-09 -2.92644e-05 -0.000396269 0.000331704 -0.0158567 
0.00467856 -1.04619e-09 -6.27424e-09 1.74722e-08 -0.000263239 -0.00157869 0.00439628 8.97441e-16 
0.000207376 -6.02194e-11 -5.11464e-10 1.61142e-09 -7.38189e-06 -6.2697e-05 0.000197533 -2.1861e-16 
0.00169284 -4.30076e-09 -6.58751e-09 1.5251e-08 -4.21602e-05 -0.000397149 0.00164505 1.91076 
0.000156603 -9.37495e-10 -6.90122e-10 2.99413e-09 -1.07617e-06 -1.45645e-05 0.000155921 0.0157884 
0.000124834 -4.81881e-13 -5.96068e-12 9.36254e-10 -6.42495e-08 -7.94741e-07 0.000124831 0 
0.000370851 -9.45255e-11 -6.61601e-10 1.27479e-09 -2.43545e-05 -0.000170462 0.000328451 1.43588e-17 
0 0 0 0 0 0 0 0 
0.0011447 -3.77411e-10 -3.60029e-09 7.04555e-09 -5.45403e-05 -0.000520284 0.00101816 -5.15432e-16 
0.000837574 -3.05478e-10 -2.44597e-09 6.21146e-09 -3.82871e-05 -0.000306566 0.000778513 2.23517e-16 
0.000344794 -1.11252e-10 -1.01993e-09 2.53939e-09 -1.40057e-05 -0.0001284 0.000319688 0 
0.00173461 -4.08141e-10 -6.45683e-09 1.69756e-08 -3.89705e-05 -0.000616517 0.00162088 2.04336e-15 
0.000288553 -1.71412e-11 -8.40656e-10 2.9293e-09 -6.27853e-06 -9.02658e-05 0.000273999 0.0216044 
0.000838005 -1.59515e-10 -2.35081e-09 8.95025e-09 -1.44431e-05 -0.000212852 0.000810394 0 
0.0001731 4.65321e-10 -1.06731e-09 2.87367e-09 -8.71976e-07 -2.24834e-05 0.000171631 -0.00496952 
0 0 0 0 0 0 0 0 
0.0011134 -3.27713e-10 -2.76014e-09 1.38942e-08 -2.57508e-05 -0.000216884 0.00109177 -9.89677e-16 
9.86703e-05 -9.07006e-12 -4.04726e-10 2.40775e-09 -3.66549e-07 -1.63562e-05 9.73045e-05 9.00887e-18 
0.000195924 -4.69887e-11 -9.74991e-10 2.2185e-09 -3.79833e-06 -7.88134e-05 0.000179332 1.35148e-17 
0.000582796 1.88289e-10 9.32283e-10 2.53548e-09 -2.84308e-05 0.000170876 0.000556456 -0.0333478 
0.000882726 -3.39913e-09 3.9616e-09 1.37609e-08 -6.25376e-06 0.000173874 0.000865409 0.388721 
0.000219216 -5.36636e-11 4.8978e-10 2.76094e-09 -4.19456e-06 3.82832e-05 0.000215807 -2.57009e-16 
0.00165498 -9.25026e-10 4.70978e-09 2.05217e-08 -3.82762e-05 0.00032238 0.00162282 -0.0536866 
6.26072e-05 -2.67761e-11 3.23358e-10 5.54018e-10 -2.61102e-06 3.15317e-05 5.40241e-05 -6.79301e-19 
0 0 0 0 0 0 0 0 
0 0 0 0 0 0 0 0 
0.00010646 -1.60532e-11 4.02678e-10 1.6735e-09 -9.92851e-07 2.49046e-05 0.000103501 -1.03403e-17 
0.000184425 -2.13106e-10 2.47662e-10 3.09092e-09 -2.57655e-06 4.6846e-05 0.000178358 0.0492252 
0.000370725 -1.21412e-10 1.44976e-09 3.63383e-09 -1.14992e-05 0.00013731 0.000344167 1.05566e-17 
5.73078e-05 -1.81037e-11 1.31044e-10 4.52669e-10 -2.1999e-06 1.59241e-05 5.5007e-05 -8.46518e-19 
0.00135912 -6.07295e-10 7.47158e-09 1.17116e-08 -5.93579e-05 0.000730284 0.00114471 -3.48617e-16 
0.000251937 1.40909e-09 3.31225e-10 2.10147e-09 -1.15164e-05 9.22126e-05 0.000234172 0.0725384 
0.000691221 -5.36642e-10 2.0344e-09 5.06064e-09 -3.98649e-05 0.000268436 0.000635719 -0.00442583 
0.000283305 -3.03313e-11 1.32288e-09 8.23758e-09 -1.02994e-06 4.49204e-05 0.000279719 6.05565e-17 
0.000844487 -2.04662e-10 1.92793e-09 7.98576e-09 -2.10319e-05 0.000198122 0.000820649 1.71811e-17 
0.000574402 -1.4641e-10 1.02474e-09 1.97449e-09 -3.77227e-05 0.000264024 0.00050873 0 
0.000273238 -1.21204e-08 -2.30268e-09 -8.19995e-08 0 0 -0.000273238 0.0584783 
0 0 0 0 0 0 0 0 
0.00033068 -1.06194e-09 8.76785e-09 7.07749e-10 0 0.000328751 3.56606e-05 -0.00745387 
0.000597458 -5.40328e-09 1.15621e-08 1.09145e-08 0 0.000450705 0.000392199 0.311651 
0.00122953 0 2.76614e-08 2.94935e-08 0 0.000841107 0.000896816 -1.37262e-16 
0.000337548 0 1.08584e-08 2.3075e-09 0 0.000330175 7.01647e-05 0 
0.000936679 -3.60184e-09 4.04816e-09 -3.05486e-08 0 0.000148048 -0.000924905 0.258134 
0.000461418 -3.65742e-10 9.09047e-09 -1.23133e-08 0 0.000320138 -0.000332292 0.00798655 
0.000361347 0 1.16561e-08 -2.31401e-09 0 0.00035443 -7.03628e-05 5.93108e-18 