ITEM: TIMESTEP
375
ITEM: NUMBER OF SURFS
6916
ITEM: BOX BOUNDS oo rr rr
-0.35 0.35
-0.25 0.25
-0.25 0.25
ITEM: SURFS f_save[1] f_save[2] f_save[3] f_save[4] f_save[5] f_save[6] f_save[7] f_save[8] 
0.00398881 -2.99286e-08 2.06176e-09 -2.87352e-10 -0.00398881 0 0 2.98104 
0 0 0 0 0 0 0 0 
0 0 0 0 0 0 0 0 
0 0 0 0 0 0 0 0 
0.00726642 -1.77119e-08 0 0 -0.00726642 0 0 0 
0.00562507 -1.37111e-08 0 0 -0.00562507 0 0 0 
0 0 0 0 0 0 0 0 
0.0061912 -1.47041e-08 0 0 -0.0061912 0 0 0 
0.00880424 -2.09101e-08 0 0 -0.00880424 0 0 0 
0.00670548 -1.59255e-08 0 0 -0.00670548 0 0 0 
0 0 0 0 0 0 0 0 
0.00612521 -1.49302e-08 0 0 -0.00612521 0 0 0 
0.0132374 -3.22661e-08 0 0 -0.0132374 0 0 0 
0.00409045 -9.71484e-09 0 0 -0.00409045 0 0 0 
0.0131969 -3.13428e-08 0 0 -0.0131969 0 0 0 
0 0 0 0 0 0 0 0 
0 0 0 0 0 0 0 0 
0.00586854 -1.39377e-08 0 0 -0.00586854 0 0 0 
0 0 0 0 0 0 0 0 
0 0 0 0 0 0 0 0 
0.00724816 -1.72144e-08 0 0 -0.00724816 0 0 0 
0 0 0 0 0 0 0 0 
0 0 0 0 0 0 0 0 
0.00225027 -5.34441e-09 0 0 -0.00225027 0 0 0 
0.00302373 -7.18136e-09 0 0 -0.00302373 0 0 0 
0 0 0 0 0 0 0 0 
0 0 0 0 0 0 0 0 
0.00286918 -6.81429e-09 0 0 -0.00286918 0 0 0 
0 0 0 0 0 0 0 0 
0.00370525 -9.26319e-09 0 0 -0.00370525 0 0 3.53816e-15 
0.00424837 -2.01797e-07 -7.2012e-10 -1.95324e-09 -0.00424837 0 0 0.392864 
0.00462268 -3.97551e-07 2.9358e-09 -2.64175e-09 -0.00462268 0 0 0.868436 
0.00287148 -1.36395e-07 2.87479e-10 5.83185e-10 -0.00287148 0 0 0.370468 
0.00594453 -1.48613e-08 0 0 -0.00594453 0 0 0 
0 0 0 0 0 0 0 0 
0.000361534 8.58645e-10 0 0 0.000361534 0 0 0 
0.000370184 8.79189e-10 0 0 0.000370184 0 0 0 
0.00107272 1.30738e-09 0 0 0.00107272 0 0 0 
0 0 0 0 0 0 0 0 
0 0 0 0 0 0 0 0 
0 0 0 0 0 0 0 0 
0 0 0 0 0 0 0 0 
0.00506764 1.20357e-08 0 0 0.00506764 0 0 0 
0 0 0 0 0 0 0 0 
0.00047856 1.13658e-09 0 0 0.00047856 0 0 0 
0 0 0 0 0 0 0 0 
0 0 0 0 0 0 0 0 
0.00034636 8.22605e-10 0 0 0.00034636 0 0 0 
0.000353127 8.38679e-10 0 0 0.000353127 0 0 0 
0 0 0 0 0 0 0 0 
0.000627724 1.53008e-09 0 0 0.000627724 0 0 0 
0 0 0 0 0 0 0 0 
0 0 0 0 0 0 0 0 
0 0 0 0 0 0 0 0 
0 0 0 0 0 0 0 0 
0.000633451 1.54404e-09 0 0 0.000633451 0 0 0 
0.000631538 1.53937e-09 0 0 0.000631538 0 0 0 
0.000373219 9.09721e-10 -5.42523e-10 1.03532e-09 0.000373219 0 0 -0.0744114 
0.000661998 1.57225e-09 0 0 0.000661998 0 0 0 
0 0 0 0 0 0 0 0 
0.000221445 5.39773e-10 0 0 0.000221445 0 0 0 
0 0 0 0 0 0 0 0 
1.22956e-05 -3.03285e-07 2.46755e-07 2.51429e-07 0 8.69432e-06 8.69432e-06 0.0184878 
1.34345e-05 -1.98161e-07 -1.17431e-07 -1.27659e-07 0 -9.49964e-06 -9.49964e-06 0.0262061 
0.000237828 -6.83003e-09 1.35562e-07 1.85804e-09 0 0.000237828 0 0.0161889 
0.000240963 -8.81679e-09 -1.37349e-07 -1.94932e-09 0 -0.000240963 0 0.0387475 
0.000184557 3.54705e-09 1.05198e-07 1.98889e-09 0 0.000184557 0 0.000294861 
0.000279653 -5.26231e-09 -1.59402e-07 -1.21809e-09 0 -0.000279653 0 0.0190439 
0.000200751 2.30759e-09 1.14428e-07 3.30266e-09 0 0.000200751 0 -0.00165083 
0.000254962 -1.04757e-08 -1.59341e-09 1.45328e-07 0 0 0.000254962 0.0312396 
0.000264545 -6.12125e-09 5.01772e-09 1.54759e-07 0 0 0.000264545 0.04139 
0.000192706 4.83758e-09 1.73121e-09 -1.12733e-07 0 0 -0.000192706 -0.000936569 
0.000218443 6.96736e-09 4.1904e-09 1.27789e-07 0 0 0.000218443 -0.00128181 
0.000150102 -2.59884e-09 8.55582e-08 -8.88034e-11 0 0.000150102 0 0.0163005 
9.22982e-05 -6.3287e-09 5.39945e-08 -3.98033e-09 0 9.22982e-05 0 0.0260536 
0.000217455 -8.6273e-09 5.09235e-09 -1.2395e-07 0 0 -0.000217455 0.0483188 
0.000207693 -7.11728e-10 1.18385e-07 -9.63629e-10 0 0.000207693 0 0.00125935 
0.000159704 -1.33852e-08 -9.10312e-08 2.67417e-09 0 -0.000159704 0 0.0482123 
0.000200589 -1.38843e-08 -3.32544e-09 1.14336e-07 0 0 0.000200589 0.0518399 
0.000206463 3.0106e-09 -4.46043e-09 1.17684e-07 0 0 0.000206463 0.00393619 
0.000135677 -8.80456e-09 9.06328e-10 -7.73361e-08 0 0 -0.000135677 0.0263257 
0.000151513 -5.32578e-09 -8.63627e-08 -6.25062e-09 0 -0.000151513 0 0.0217873 
0.000157779 -6.47131e-09 8.99342e-08 -1.35273e-09 0 0.000157779 0 0.0282316 
0.000195323 2.60204e-09 -1.20146e-10 -1.11334e-07 0 0 -0.000195323 6.16819e-05 
0.00016544 -7.54031e-09 9.67825e-08 -2.33512e-09 0 0.00016544 0 0.00776161 
0.000128001 1.62015e-09 -2.68479e-09 7.48805e-08 0 0 0.000128001 -0.000391585 
0.000207195 3.38983e-09 -1.21209e-07 -7.6981e-10 0 -0.000207195 0 -0.000989842 
9.59086e-05 2.11632e-09 -1.26895e-09 -5.46679e-08 0 0 -9.59086e-05 0.000209607 
0.000213538 -1.20068e-09 -1.2492e-07 -3.51806e-10 0 -0.000213538 0 0.00933551 
0.000214555 -1.47663e-08 3.61151e-09 1.25514e-07 0 0 0.000214555 0.0436435 
0.000112958 -3.91156e-09 1.51891e-09 -6.43861e-08 0 0 -0.000112958 0.0214996 
0.000117285 1.05066e-09 -6.86116e-08 -2.27894e-09 0 -0.000117285 0 0.0158569 
0.000218152 8.13481e-10 -1.24346e-07 -6.55613e-09 0 -0.000218152 0 0.00231027 
0.000139665 1.99588e-10 3.97261e-10 4.08519e-08 0 0 0.000139665 -0.0010866 
0.00013574 -1.00586e-08 -1.9864e-09 7.73717e-08 0 0 0.00013574 0.0423281 
0.000170775 -1.16686e-08 3.36029e-09 -9.7342e-08 0 0 -0.000170775 0.0434965 
0.000150014 -7.19091e-09 -6.05381e-10 8.55079e-08 0 0 0.000150014 0.0263618 
0.000103443 -7.14732e-09 -5.89624e-08 1.11263e-09 0 -0.000103443 0 0.0265677 
0.000149349 -6.6592e-09 -6.85421e-10 -8.51289e-08 0 2.92834e-11 -0.000149349 0.0311521 
0.000157773 9.24426e-10 -8.99306e-08 2.94535e-09 0 -0.000157773 0 -7.81625e-05 
8.93055e-05 -1.37515e-08 -5.09041e-08 2.29163e-09 0 -8.93055e-05 0 0.038378 
8.34894e-05 5.26931e-10 -3.253e-10 4.75889e-08 0 0 8.34894e-05 -0.000723521 
0.000197609 1.4734e-09 1.12637e-07 3.02522e-09 0 0.000197609 0 0.00999793 
0.000106215 -1.29262e-09 1.48836e-10 -6.05428e-08 0 0 -0.000106215 0.00599068 
0.000213553 -6.64868e-09 -1.21725e-07 7.10141e-10 0 -0.000213553 0 0.0162099 
0.000170836 -1.62305e-08 1.14388e-09 -9.73763e-08 0 0 -0.000170836 0.0510525 
0.000310323 -6.21015e-10 2.21094e-08 1.05666e-09 -5.90351e-07 0.000310322 0 -0.00601353 
0.000525234 1.01426e-10 9.56234e-09 -2.90063e-10 -3.56232e-05 0.000523483 -2.38319e-05 -0.0393217 
0.000283273 -3.9539e-10 4.5828e-09 4.23114e-10 -3.10436e-06 0.000283086 -9.82279e-06 0.000430614 
0.000456928 6.58995e-10 8.21609e-09 -1.0012e-09 -1.41772e-05 0.000456078 -2.39883e-05 -0.049323 
0.000186583 -5.4095e-11 3.07573e-09 -3.47894e-11 -3.28085e-06 0.000186542 -2.10997e-06 6.98535e-18 
0.0004768 -1.51228e-11 8.94002e-10 0 -8.0643e-06 0.000476732 0 -1.22836e-17 
0.000633451 1.13005e-09 1.52817e-08 -1.39408e-09 -3.35161e-07 0.000633395 8.43706e-06 0.00779116 
0.000543955 -5.50185e-10 1.0036e-08 1.89486e-10 -2.08165e-05 0.00054345 1.07561e-05 -0.0489446 
0.000208743 -4.06317e-11 3.36497e-09 1.16761e-10 -2.51885e-06 0.000208602 7.23829e-06 -9.99598e-18 
0.00024942 -7.77011e-11 1.77711e-08 7.74937e-10 -1.18809e-07 0.00024942 0 -0.0157822 
0.000144367 1.18239e-09 -8.94587e-11 1.02884e-08 -2.7464e-07 0 0.000144366 0.00233692 
0.000263114 -1.37169e-09 9.73739e-10 4.6557e-09 -1.78453e-05 1.19385e-05 0.000262236 0.00317485 
0.000240362 -2.7606e-10 4.76803e-10 3.86022e-09 -2.63409e-06 8.33479e-06 0.000240203 -0.00639644 
0.000119061 8.99755e-11 2.05624e-10 2.14121e-09 -3.69411e-06 6.25058e-06 0.000118839 -0.000694269 
0.00039309 -2.36074e-10 -5.23477e-10 6.4845e-09 -6.91205e-06 4.44526e-06 0.000393004 0.0072901 
0 0 0 0 0 0 0 0 
0.000383179 6.52812e-10 -4.85233e-10 9.22628e-09 -2.02741e-07 -5.10363e-06 0.000383145 -0.00966206 
0.00019868 -3.58438e-11 1.09764e-10 3.67554e-09 -7.60325e-06 -3.92869e-06 0.000198496 0.00865631 
0.000274651 -5.34606e-11 -1.53627e-10 4.42741e-09 -3.31415e-06 -9.52369e-06 0.000274466 -2.142e-17 
0.000207348 8.28087e-10 -1.65351e-09 1.47739e-08 -9.87682e-08 0 0.000207348 0.00613083 
0.000197324 1.59509e-09 -1.40624e-08 1.23779e-09 -3.75384e-07 -0.000197323 0 -0.000862138 
0.000224604 -7.95379e-09 -3.52591e-09 5.41064e-10 -1.52334e-05 -0.000223855 1.01911e-05 0.732034 
0.000337297 1.90944e-10 -5.43441e-09 3.50521e-10 -3.6964e-06 -0.000337074 1.16961e-05 0.00603294 
0.000233693 -1.51687e-10 -4.19742e-09 3.11672e-10 -7.25082e-06 -0.000233258 1.22687e-05 0.00465803 
0.000276109 -8.00508e-11 -4.55152e-09 5.1482e-11 -4.85506e-06 -0.000276049 3.12237e-06 -1.9559e-17 
0 0 0 0 0 0 0 0 
0.000281318 -3.58601e-12 -6.77693e-09 -9.02713e-11 -1.48846e-07 -0.000281293 -3.74693e-06 1.19516e-17 
0.000216925 -1.53399e-10 -4.00474e-09 -7.92632e-11 -8.30145e-06 -0.000216723 -4.28946e-06 1.54576e-16 
0 0 0 0 0 0 0 0 
0.000222846 1.26905e-09 -1.58784e-08 8.2532e-10 -1.06151e-07 -0.000222846 0 -0.000200943 
0.000339255 -4.7945e-09 1.32306e-10 -2.41629e-08 -6.45391e-07 0 -0.000339255 0.11861 
0.000359491 -4.42705e-10 -2.96169e-10 -6.50554e-09 -2.43819e-05 -1.63115e-05 -0.000358292 1.93469e-17 
0.000133657 -8.77758e-09 -7.06866e-10 -2.03663e-09 -1.46473e-06 -4.63468e-06 -0.000133568 0.796663 
6.95081e-05 -1.60411e-10 2.03704e-10 -1.26046e-09 -2.15663e-06 -3.64911e-06 -6.93787e-05 -0.000418473 
0.00029163 -6.78579e-10 -5.19203e-10 -4.79166e-09 -5.12798e-06 -3.29789e-06 -0.000291566 -0.0255539 
0 0 0 0 0 0 0 0 
0.00010695 -7.94475e-09 7.6501e-10 -2.56248e-09 -5.65875e-08 1.42449e-06 -0.00010694 0.657281 
0.000343696 -2.43046e-10 1.25585e-10 -6.34513e-09 -1.31528e-05 6.79624e-06 -0.000343377 -1.99453e-17 
0.000109575 -2.13288e-11 6.12913e-11 -1.76637e-09 -1.32222e-06 3.79959e-06 -0.000109502 -1.428e-18 
0.000136062 -2.4169e-10 2.58517e-10 -9.69429e-09 -6.48117e-08 0 -0.000136062 -0.00172863 
0 0 0 0 0 0 0 0 
0 0 0 0 0 0 0 0 
0 0 0 0 0 0 0 0 
0 0 0 0 0 0 0 0 
0 0 0 0 0 0 0 0 
0 0 0 0 0 0 0 0 
0 0 0 0 0 0 0 0 
0 0 0 0 0 0 0 0 
0 0 0 0 0 0 0 0 
0 0 0 0 0 0 0 0 
0 0 0 0 0 0 0 0 
0 0 0 0 0 0 0 0 
0 0 0 0 0 0 0 0 
0 0 0 0 0 0 0 0 
0 0 0 0 0 0 0 0 
0 0 0 0 0 0 0 0 
0.000316048 -1.29329e-09 7.29855e-09 -1.95995e-10 -5.51249e-05 0.000311091 -8.35404e-06 1.76731e-17 
9.2926e-05 -2.7912e-10 1.10348e-09 -2.22719e-10 -2.23635e-05 8.8412e-05 -1.78445e-05 1.6149e-18 
0.000501902 -1.14159e-10 3.80333e-09 -1.04512e-09 -0.000108315 0.00048847 -3.96282e-05 0.0789621 
0.000593309 -1.90702e-09 1.01377e-08 -8.4115e-10 -0.000109322 0.000581154 -4.82199e-05 -1.79589e-16 
0.00055238 -1.61687e-09 1.04215e-08 -1.46811e-09 -0.000107686 0.000538195 -6.22437e-05 -0.000877462 
0.000394143 -6.01714e-10 2.70705e-09 -4.23318e-10 -9.31622e-05 0.000380419 -4.41702e-05 0.0279647 
7.8509e-05 -2.14078e-10 9.66141e-10 -1.45499e-10 -1.68034e-05 7.58346e-05 -1.14205e-05 -5.87623e-18 
0.000107958 -3.25211e-10 1.40546e-09 -1.93548e-10 -2.41212e-05 0.000104245 -1.43557e-05 0 
0.000394655 -8.35075e-10 4.47186e-09 -1.02529e-09 -9.19452e-05 0.000374819 -8.25194e-05 0.0145672 
0.000413348 -1.14413e-09 4.59361e-09 -6.09708e-10 -7.93292e-05 0.000405193 -1.95401e-05 0.0253223 
0.000310787 -1.36024e-09 3.43048e-09 -5.35896e-10 -7.44806e-05 0.000293858 -6.84738e-05 -0.0289801 
0.000126322 9.53881e-11 2.45917e-09 2.64341e-10 -2.21819e-05 0.00012427 4.70287e-06 0.00734274 
0.000235155 -8.02804e-09 1.71549e-09 2.37185e-10 -4.92998e-05 0.000228834 2.24234e-05 0.875919 
0.000342212 3.23373e-10 8.14854e-09 1.17267e-09 -6.0301e-05 0.000336619 1.26484e-05 0.000319585 
0.00109168 -2.55456e-09 9.72386e-09 1.96261e-09 -0.000272244 0.00103629 0.000209159 -1.44838e-16 
0.000574306 -9.226e-10 3.73685e-09 5.65806e-10 -0.000136195 0.000551636 8.35247e-05 -2.17629e-16 
0.000595515 -3.48673e-09 6.56312e-09 2.77886e-09 -0.000135436 0.000571908 9.60037e-05 -0.042907 
0.000497255 -1.39423e-09 6.52906e-09 8.08139e-10 -0.000103091 0.000482767 5.97548e-05 -6.7278e-17 
0.000399646 -8.38795e-10 4.12512e-09 3.52426e-10 -7.93561e-05 0.000390266 3.3342e-05 -8.71713e-18 
0.000206128 -6.27857e-10 3.92394e-09 -6.60173e-10 -3.70037e-05 0.000202529 1.00666e-05 0.038284 
0.000457318 -1.50967e-09 8.05417e-09 -5.67016e-10 -8.94803e-05 0.000443681 6.54174e-05 0.0178553 
2.80848e-05 -6.75857e-11 3.1595e-10 5.32938e-11 -5.79646e-06 2.70973e-05 4.57072e-06 0 
0.000373661 -2.24725e-09 4.8228e-10 4.14543e-09 -6.73047e-05 3.41838e-05 0.000365957 -0.0172247 
0.000385468 -6.52005e-10 3.22555e-10 2.64977e-09 -9.14647e-05 4.52487e-05 0.000371715 0 
0.000644905 2.00683e-10 -3.78463e-10 1.15807e-08 -0.00011752 4.23824e-05 0.000632689 0.0101145 
0.000121344 -4.42048e-10 1.65439e-10 2.26006e-09 -2.32326e-05 8.69494e-06 0.000118781 -1.21064e-18 
0.000528161 -1.19946e-09 3.35291e-10 5.91397e-09 -0.000104822 2.93013e-05 0.000516825 -1.91239e-17 
0.000548055 -1.07218e-09 2.57229e-10 7.98246e-09 -0.000113747 4.30397e-05 0.000534391 0.0182448 
0.000393155 -7.85822e-09 6.75483e-10 2.62134e-09 -8.6504e-05 8.67969e-05 0.000373569 1.01588 
7.54218e-05 -1.23914e-10 6.8182e-11 5.09228e-10 -1.76835e-05 9.73012e-06 7.2671e-05 -6.57457e-18 
0.000376609 -1.36871e-09 6.97205e-10 7.04422e-09 -6.74082e-05 1.40122e-05 0.000370262 -0.00224095 
0.000838521 -1.00918e-09 1.89043e-09 8.25417e-09 -0.000198818 0.000229756 0.000781538 -0.0303804 
0.000405205 -7.43803e-10 5.36963e-10 3.04796e-09 -8.76332e-05 9.28919e-05 0.000384555 -0.038718 
0.000468373 -1.71436e-09 -3.91963e-10 9.65224e-09 -8.79176e-05 -2.79735e-05 0.000459196 -0.0111922 
0.00084272 -1.01772e-08 -6.95253e-10 3.64074e-09 -0.000199963 -9.8924e-05 0.000812654 1.97697 
0.00035029 -6.41126e-10 -7.68669e-10 2.50317e-09 -8.33048e-05 -9.98772e-05 0.00032525 2.99306e-18 
0.000155232 -2.38872e-10 -8.40124e-11 1.03556e-09 -3.47825e-05 -1.22332e-05 0.00015079 3.35416e-18 
0.000422712 -2.06013e-10 -1.254e-09 4.5855e-09 -0.000100348 -0.000102264 0.00039769 -0.0166818 
0.000402138 -7.51179e-10 -3.7105e-10 4.45615e-09 -8.36368e-05 -7.99611e-05 0.000385131 -0.0077638 
0.00054932 -1.18426e-09 -4.94374e-10 5.82613e-09 -0.000109044 -4.55211e-05 0.000536461 4.24206e-18 
0.000107955 -9.59928e-10 2.98928e-10 1.76402e-09 -2.09019e-05 -1.04246e-05 0.000105398 -0.00550263 
0.00045572 -1.33088e-08 -1.22358e-09 2.98508e-08 -7.91238e-05 -4.88139e-06 0.000448772 0.21285 
0.000368626 -1.937e-09 -1.34397e-09 8.62782e-09 -6.53758e-05 -2.62687e-05 0.00036183 -0.0134484 
0.000426159 -1.8e-09 -9.8691e-09 -1.13932e-09 -7.43302e-05 -0.000419475 1.12646e-05 -0.00403885 
0.000335996 -1.00923e-09 -3.98988e-09 8.05293e-10 -8.08606e-05 -0.000319675 6.45212e-05 -5.16768e-17 
0.000433781 -7.10392e-10 -3.20367e-09 2.59905e-10 -9.36137e-05 -0.000422172 3.42496e-05 3.0355e-17 
0.000618215 -1.98707e-09 -1.05632e-08 8.76459e-10 -0.000113911 -0.000605549 5.0244e-05 -1.86192e-16 
0.000361611 -8.09354e-10 -6.89809e-09 7.37203e-10 -7.04954e-05 -0.000352324 4.07473e-05 0.000873613 
7.99255e-05 -1.34325e-10 -5.48503e-10 6.36863e-11 -1.88917e-05 -7.71425e-05 8.95696e-06 -1.61985e-18 
0.000643986 -1.83241e-09 -8.01101e-09 5.09709e-10 -0.000137834 -0.000622048 9.36791e-05 -0.0150855 
0.000223692 -9.01973e-09 -1.12544e-09 -6.47832e-10 -4.998e-05 -0.000215998 2.97454e-05 1.02077 
0.000314645 -4.82402e-09 -2.67273e-09 2.38277e-10 -7.33048e-05 -0.000298831 6.57899e-05 0.63143 
0.000167448 1.97279e-11 -1.96395e-09 7.14464e-11 -3.21364e-05 -0.000164145 7.91574e-06 0.00201826 
0.000837443 -5.35144e-10 -1.0092e-08 1.20844e-09 -0.000200694 -0.000791827 0.000184509 -0.00586269 
0.000335771 -5.91335e-10 -6.40182e-09 -2.80015e-10 -5.8961e-05 -0.000330317 -1.25006e-05 -0.00459796 
8.48895e-05 -4.1907e-10 -1.15303e-09 -8.8974e-11 -1.77969e-05 -8.26073e-05 -8.09469e-06 -5.54609e-05 
0.000393283 -1.12862e-09 -9.11626e-09 -8.05011e-10 -6.93002e-05 -0.000386856 -1.4536e-05 0.0108854 
0.00044144 -1.03298e-09 -3.93203e-09 -7.93618e-10 -0.000110087 -0.000419043 -8.45772e-05 9.81953e-18 
0.000773498 -1.24259e-09 -5.03294e-09 -7.6205e-10 -0.000183432 -0.000742965 -0.000112494 3.40045e-18 
0.000226929 -6.53786e-10 -2.76075e-09 -4.63435e-10 -5.16098e-05 -0.000217933 -3.65835e-05 2.72758e-18 
0.00038379 -1.07609e-09 -5.03925e-09 -6.23736e-10 -7.95676e-05 -0.000372608 -4.61198e-05 -2.72518e-17 
0.000372475 -1.35699e-09 -3.78195e-09 3.06645e-10 -7.39609e-05 -0.000363733 -3.10748e-05 -0.0177159 
0.000447208 -1.53295e-09 -8.39014e-09 -4.17026e-10 -8.02821e-05 -0.000439401 -2.18401e-05 1.11589e-17 
0.000493161 -1.69971e-09 -8.20738e-09 -2.53273e-09 -9.64935e-05 -0.000478456 -7.05446e-05 0.00152637 
0.000316128 -7.60758e-10 -3.55639e-09 -5.99885e-10 -6.52461e-05 -0.000305013 -5.14489e-05 1.3434e-16 
3.41239e-05 -7.41677e-11 -3.76695e-11 -4.03273e-10 -6.14648e-06 -3.12178e-06 -3.34203e-05 0 
0 0 0 0 0 0 0 0 
0.00051566 -1.64648e-09 -5.9379e-10 -8.86415e-09 -9.39678e-05 -3.38886e-05 -0.000505892 3.97682e-17 
9.87432e-05 -3.561e-10 -7.65486e-10 -1.79364e-09 -1.89054e-05 -7.07546e-06 -9.66578e-05 0.00587457 
0.000525641 -9.80962e-09 -1.2163e-09 -4.08825e-09 -0.000104322 -2.91614e-05 -0.000514359 1.11544 
0.000458759 -1.93219e-09 -2.3486e-09 -6.2898e-09 -9.52142e-05 -3.60271e-05 -0.000447321 0.0115536 
0.000463683 -1.03904e-09 -1.9541e-09 -4.72815e-09 -0.000102022 -0.000102368 -0.000440584 -0.00269532 
0.000444145 -7.29705e-10 -4.01507e-10 -2.99875e-09 -0.000104135 -5.72982e-05 -0.000427946 0 
0.000476377 -1.62929e-09 -3.38683e-10 -8.94943e-09 -8.52652e-05 -1.77242e-05 -0.000468349 -2.77262e-17 
0.000145747 -3.48267e-10 -4.0246e-10 -1.36901e-09 -3.45576e-05 -3.9935e-05 -0.000135843 -1.82857e-17 
0.000322911 -7.68923e-09 -1.82754e-10 -8.71001e-10 -6.98355e-05 -7.40262e-05 -0.000306455 1.60849 
0.000222877 -8.76097e-10 2.78755e-10 -4.57588e-09 -4.18359e-05 1.33113e-05 -0.00021851 -4.39993e-18 
0.00127052 -2.54316e-09 1.80635e-09 -8.54634e-09 -0.000301473 0.000149142 -0.00122519 -0.0448406 
0.000173659 -3.17843e-10 3.81074e-10 -1.24097e-09 -4.1299e-05 4.95149e-05 -0.000161245 -7.48266e-18 
0.00031101 -4.78585e-10 1.6832e-10 -2.07477e-09 -6.96874e-05 2.45093e-05 -0.00030211 0 
4.46714e-05 -1.17065e-10 1.193e-10 -4.63942e-10 -1.06046e-05 1.08071e-05 -4.20272e-05 -3.13002e-18 
0.000369446 -8.59389e-10 8.2162e-10 -3.95732e-09 -7.68376e-05 7.34606e-05 -0.000353822 -2.64653e-16 
0.000191 -9.60464e-11 3.5032e-10 -2.07479e-09 -3.7915e-05 1.58278e-05 -0.000186529 -0.0108154 
0.000659845 2.66162e-10 1.76532e-09 -1.16431e-08 -0.000127757 6.37171e-05 -0.000644216 -0.000536085 
0.000361081 -3.4138e-09 9.05291e-10 -2.49098e-08 -6.26923e-05 3.86768e-06 -0.000355576 0.00553673 
0.000757015 -3.90683e-09 1.17158e-10 -1.79229e-08 -0.000134257 5.39458e-05 -0.000743059 -0.00665309 
0.000464141 -1.51842e-10 1.87561e-09 2.18269e-10 -2.61149e-05 0.000436138 0.000156616 -0.00755986 
0.00129051 -2.90047e-10 5.67688e-09 1.74325e-09 -6.29555e-05 0.00123218 0.000378376 4.37484e-17 
0 0 0 0 0 0 0 0 
0.000208385 -6.81832e-11 2.00409e-09 8.43609e-10 -6.53115e-06 0.000191968 8.08079e-05 2.20649e-18 
0.000186887 -6.47479e-12 5.21403e-09 4.05847e-10 -2.31376e-07 0.000186323 1.45029e-05 2.46947e-18 
0.000616472 -1.57131e-10 2.11911e-09 1.09979e-09 -4.04849e-05 0.00054599 0.000283361 7.12199e-17 
0.0010812 -8.29087e-10 7.48499e-09 4.2024e-09 -5.60141e-05 0.000994708 0.000420021 0.0098991 
0.00226861 -5.02815e-10 1.00846e-08 5.84272e-09 -9.77814e-05 0.00196113 0.00113622 -5.73386e-16 
0.000492996 1.10405e-10 3.8544e-09 9.79728e-10 -2.52622e-05 0.00045811 0.000180396 0.0277958 
6.47788e-05 1.33867e-10 1.34202e-10 1.15122e-09 -2.59349e-06 6.07152e-05 2.24327e-05 0.0483159 
0.000131206 -3.63381e-11 1.28404e-09 4.88396e-10 -3.46934e-06 0.000122592 4.6629e-05 -5.49811e-19 
0.000133893 -1.90267e-11 1.02993e-09 3.04831e-10 -2.37144e-06 0.000128368 3.79934e-05 -2.00972e-17 
0 0 0 0 0 0 0 0 
0.00026717 2.3794e-10 4.57437e-09 -2.88407e-10 -1.98577e-06 0.000263613 4.34062e-05 -0.00621456 
0.000371956 -3.49807e-09 8.97702e-09 2.06607e-09 -1.35219e-06 0.000367251 5.89549e-05 0.257779 
0.000347861 -1.2778e-10 2.33707e-09 1.66445e-09 -1.54767e-05 0.000283066 0.000201598 -8.71876e-17 
0.000129803 -2.43068e-11 1.51575e-09 5.29294e-10 -1.96495e-06 0.000122532 4.27879e-05 2.04836e-17 
0.000398522 -7.50504e-11 1.97607e-09 7.61579e-10 -1.41142e-05 0.000371627 0.000143225 -1.94942e-17 
7.91207e-05 -1.77827e-11 3.4805e-10 -1.06879e-10 -3.85978e-06 7.55449e-05 -2.31982e-05 0 
0 0 0 0 0 0 0 0 
0.000240977 -6.42507e-11 2.5976e-09 -6.16023e-10 -5.79795e-06 0.000234406 -5.55896e-05 -4.93684e-18 
0.000628388 -1.22774e-09 6.77592e-09 -1.66135e-09 -1.25042e-05 0.000614375 -0.000131371 -0.00054033 
0 0 0 0 0 0 0 0 
0.00363814 -1.86699e-09 2.40212e-08 -1.42248e-08 -0.000242763 0.00312345 -0.00184964 -1.14717e-15 
0.000384148 -3.17225e-10 6.39263e-09 -7.22085e-10 -1.29138e-06 0.0003808 -5.0587e-05 -0.000329077 
0.00226853 -3.23866e-10 1.81716e-08 -4.77277e-09 -3.9099e-05 0.00219378 -0.000576196 1.10125e-15 
0.000305606 -5.53821e-10 2.97502e-09 -1.26616e-09 -8.00643e-06 0.000287093 -0.000104444 -0.00450743 
0.000668533 2.48099e-10 5.9404e-09 -3.44942e-09 -2.54386e-05 0.000576965 -0.000336751 0.00911573 
0.000237493 -1.06119e-10 2.04649e-09 -1.30559e-09 -1.03723e-05 0.000200027 -0.00012761 -4.50296e-18 
0.000154451 -5.22579e-11 8.50727e-10 -6.13369e-10 -7.68628e-06 0.000125128 -9.02166e-05 -6.77616e-18 
0.00145741 -2.95684e-10 5.58182e-09 -1.90252e-09 -7.29834e-05 0.00137775 -0.000469596 -3.29772e-16 
0.000513643 -1.1781e-10 1.95944e-09 -7.14432e-10 -2.89679e-05 0.000481799 -0.000175669 1.6992e-17 
0.000312974 5.19074e-10 6.04398e-09 -1.19731e-09 -8.55149e-07 0.000312151 -2.26621e-05 0.0215889 
0.000544326 5.58004e-11 5.1334e-09 -1.32031e-09 -1.35564e-05 0.00052896 -0.000127702 0.0183594 
0.00368656 -9.39673e-10 1.26725e-08 -6.57685e-09 -0.000242107 0.00326507 -0.00169453 -1.51936e-15 
0.000685304 -1.57984e-10 1.05889e-09 -2.52438e-09 -3.94843e-05 0.000264645 -0.000630909 -9.21129e-17 
0.0024824 -1.25057e-10 7.28642e-10 -2.44079e-09 -0.000121728 0.000709243 -0.0023758 1.34531e-16 
0.000380629 -5.84758e-11 7.32947e-10 -4.07821e-09 -9.6522e-06 0.00011284 -0.000363391 0.00701988 
0.000368057 -2.62136e-09 1.21816e-09 -6.994e-09 -4.50361e-06 4.93177e-05 -0.00036471 0.391586 
0.00079292 -4.14979e-10 3.91352e-09 -4.58746e-09 -5.44396e-05 0.0005134 -0.000601813 4.35151e-16 
0.00100954 -2.3325e-10 1.57062e-09 -3.7196e-09 -5.82235e-05 0.000392058 -0.000928484 4.31249e-17 
0 0 0 0 0 0 0 0 
0 0 0 0 0 0 0 0 
0.000223945 3.66444e-10 3.55405e-10 -1.79314e-09 -9.15743e-06 8.61971e-05 -0.000206489 0.0264528 
0 0 0 0 0 0 0 0 
0.000686252 -5.50145e-10 -1.10626e-09 -8.04313e-09 -1.44359e-05 0.000186133 -0.00066037 0.991508 
0.000219667 -1.58407e-10 1.20373e-09 -2.16387e-09 -4.52064e-06 5.40024e-05 -0.000212878 -0.00140642 
0.000727243 -1.94778e-09 6.48011e-09 -1.08939e-08 -7.74847e-06 0.000162651 -0.000708778 0.715386 
0.000211971 1.06721e-10 1.51655e-09 -3.19761e-09 -1.60797e-06 4.17525e-05 -0.000207812 -0.0155551 
0 0 0 0 0 0 0 0 
0.000737341 -1.34308e-09 3.06803e-09 -1.14682e-08 -1.13822e-05 0.000226328 -0.000701653 -0.000817668 
0.000368296 -5.8119e-09 1.50365e-09 -8.9808e-09 -8.48e-07 4.81747e-05 -0.000365131 0.559536 
0.000419846 1.09414e-12 -1.018e-11 -2.44426e-09 1.87937e-07 -1.74859e-06 -0.000419843 -1.7805e-17 
0.000818614 -2.52636e-09 -3.96827e-09 -6.78815e-09 -3.06483e-05 -0.00020824 -0.000791091 0.876336 
8.00178e-05 7.49531e-10 -7.08844e-10 -1.30445e-09 -5.64999e-07 -1.03931e-05 -7.93379e-05 0.000205912 
0.000555691 -1.24745e-10 -1.49015e-09 -5.87423e-09 -1.14359e-05 -0.000136609 -0.000538516 -1.8372e-16 
0.00039319 -3.78519e-09 -1.80344e-09 -3.83118e-09 -9.77903e-06 -0.000106637 -0.000378327 0.531105 
0.000373794 3.2065e-10 -7.21051e-10 -1.84393e-09 -1.53936e-05 -0.000149008 -0.000342463 0.0624988 
0.000288383 -1.4897e-10 -1.22614e-09 -1.82554e-09 -1.94908e-05 -0.000160425 -0.000238848 -6.02768e-18 
0 0 0 0 0 0 0 0 
0.00059609 -5.15906e-09 -1.75045e-09 -9.99963e-09 -7.66637e-06 -0.000106671 -0.000586417 0.621962 
0.000739576 -1.00268e-09 -3.88119e-09 -6.71597e-09 -1.99719e-05 -0.00028683 -0.000681398 -0.00513859 
0.000299694 -1.00818e-10 -1.44528e-09 -2.71714e-09 -9.81226e-06 -0.000140664 -0.00026445 6.72577e-18 
0.000223582 -5.54575e-10 -7.81194e-10 -1.57143e-09 -9.14257e-06 -8.60574e-05 -0.000206154 -0.0810353 
0.000278766 -2.62509e-10 -9.07824e-10 -1.6651e-09 -1.37089e-05 -0.000151022 -0.000233912 -0.001825 
0.00117697 -5.53322e-10 -5.15539e-09 -7.36092e-09 -7.23302e-05 -0.000673912 -0.000962219 3.9747e-16 
0.000341867 -7.6631e-11 -4.64702e-10 -1.27452e-09 -1.92805e-05 -0.00011692 -0.000320673 5.79566e-18 
0.000337493 5.18983e-10 8.93798e-10 -5.96455e-09 -1.46258e-06 -3.55191e-05 -0.000335616 0.0413846 
0.000157798 -5.79639e-11 -7.55035e-10 -1.06015e-09 -7.02059e-06 -9.14499e-05 -0.000128406 1.116e-17 
0 0 0 0 0 0 0 0 
0.00119998 -5.11142e-10 -5.90771e-09 -5.68117e-09 -7.46903e-05 -0.000863261 -0.000830159 -8.8862e-16 
0.000133659 -6.09377e-11 -1.19313e-09 -3.40122e-10 -6.55703e-06 -0.000128383 -3.65978e-05 0 
0.000613644 -5.20374e-10 -6.1126e-09 -2.63159e-09 -1.81324e-05 -0.000585785 -0.000181897 0.02641 
0.000430029 -6.93783e-11 -7.25108e-09 -1.319e-09 -4.0479e-06 -0.000423067 -7.69573e-05 -1.51199e-18 
0.000172777 -8.92511e-11 -1.09372e-09 -7.34614e-10 -1.16774e-05 -0.0001431 -9.61149e-05 -4.82214e-17 
0.000670897 -2.7969e-10 -4.54175e-09 -2.50126e-09 -3.61374e-05 -0.000586818 -0.000323175 1.9048e-16 
0.000555615 -2.1678e-10 -4.9167e-09 -2.86968e-09 -2.11419e-05 -0.000479513 -0.000279872 1.34793e-17 
0 0 0 0 0 0 0 0 
0.000182365 -5.97246e-11 -1.78754e-09 -7.13162e-10 -5.65662e-06 -0.000169301 -6.75448e-05 3.4907e-17 
8.45025e-05 -3.2557e-11 -7.66132e-10 -4.07513e-10 -3.16814e-06 -7.45526e-05 -3.96552e-05 -8.9662e-18 
0.000127254 -1.31694e-09 -6.62473e-10 -9.48611e-10 -2.40606e-06 -0.000118581 -4.61114e-05 -0.0462233 
0.000470671 -1.31492e-10 -4.12142e-09 -5.34504e-11 -6.111e-06 -0.000462325 -8.80308e-05 -0.0573323 
0.000299427 -2.24395e-09 -4.95496e-09 -5.81598e-10 -2.32866e-06 -0.000293781 -5.78291e-05 0.381698 
0.000863283 -9.69666e-10 -2.03861e-08 -5.20841e-10 -2.37559e-08 -0.000863204 -1.16832e-05 0.0138738 
0.000416957 -1.32584e-10 -2.05656e-09 -1.50288e-09 -2.16739e-05 -0.000336191 -0.00024568 2.40999e-16 
0 0 0 0 0 0 0 0 
9.62477e-05 -4.08913e-10 -2.44078e-09 5.66158e-10 -1.15117e-07 -9.58714e-05 -8.50258e-06 0.00253513 
0.000584964 0 -4.38723e-09 2.79314e-11 7.27411e-23 -0.000584952 3.72411e-06 8.59958e-17 
0.000440384 -2.60944e-11 -1.22865e-08 9.56347e-10 -9.32482e-07 -0.000439055 3.4175e-05 5.4534e-17 
0.000248054 -2.89861e-11 -2.29451e-09 4.1021e-10 -3.08447e-06 -0.000244163 4.36512e-05 -9.80481e-18 
0.00171489 -4.53116e-10 -1.6215e-08 7.04997e-09 -4.39329e-05 -0.00157216 0.000683546 -4.28816e-16 
1.78306e-05 -5.10817e-12 -2.50398e-10 9.71725e-11 -3.39047e-07 -1.66198e-05 6.44968e-06 0 
0 0 0 0 0 0 0 0 
0 0 0 0 0 0 0 0 
0.000633129 -1.42375e-10 -1.02559e-08 2.35355e-09 -8.56577e-06 -0.000617032 0.000141597 -2.13423e-16 
0.000339632 -9.70818e-11 -3.14791e-09 1.51848e-09 -9.43041e-06 -0.000305784 0.000147504 0 
0.000236376 -7.84652e-11 -2.23001e-09 1.03215e-09 -7.54402e-06 -0.000214404 9.92356e-05 1.55029e-17 
0.000442723 4.86994e-10 -2.93273e-09 1.17213e-09 -1.56797e-05 -0.000412846 0.00015911 0.0308911 
0 0 0 0 0 0 0 0 
0.001355 -5.49604e-09 -8.87661e-09 5.67612e-09 -6.33076e-05 -0.00123416 0.00055577 1.85726 
0.000178337 -7.16044e-10 -9.05004e-10 1.24031e-09 -1.04925e-05 -0.000160237 7.75765e-05 0.0421888 
0.000318073 -2.95522e-09 -8.91328e-09 1.80342e-10 -7.82577e-07 -0.000316368 3.28827e-05 0.122773 
1.71651e-05 -3.25062e-12 -1.9992e-10 7.14706e-11 -2.62777e-07 -1.61614e-05 5.77761e-06 9.31064e-19 
0.000427886 -9.03001e-10 -2.28132e-09 1.33216e-09 -2.41919e-05 -0.000327583 0.000274209 -0.0131082 
0.00386761 -8.64854e-10 -5.1867e-09 1.44437e-08 -0.000217611 -0.00130505 0.00363426 7.41884e-16 
0.000171431 -4.97814e-11 -4.22811e-10 1.33211e-09 -6.10236e-06 -5.18295e-05 0.000163294 -1.80718e-16 
0.00139941 -3.55529e-09 -5.44568e-09 1.26075e-08 -3.48524e-05 -0.00032831 0.00135991 1.57956 
0.000183422 -4.74903e-10 -1.03318e-09 3.49017e-09 -1.26047e-06 -1.70587e-05 0.000182622 0.00231119 
0.000103196 -3.98355e-13 -4.9275e-12 7.7397e-10 -5.3113e-08 -6.56986e-07 0.000103194 0 
0.000402312 -1.02544e-10 -7.17727e-10 1.38294e-09 -2.64206e-05 -0.000184923 0.000356315 1.48375e-17 
0.000866708 -4.07461e-10 -3.79637e-09 5.42051e-09 -5.32634e-05 -0.000496262 0.000708569 0 
0.000983995 -3.24427e-10 -3.09485e-09 6.05644e-09 -4.68835e-05 -0.000447242 0.000875227 -4.26091e-16 
0.000692395 -2.52529e-10 -2.022e-09 5.13481e-09 -3.16506e-05 -0.000253428 0.000643571 1.84774e-16 
0.00028503 -9.19685e-11 -8.43139e-10 2.09923e-09 -1.1578e-05 -0.000106144 0.000264275 0 
0.00149706 -3.52247e-10 -5.57257e-09 1.46508e-08 -3.36336e-05 -0.000532086 0.0013989 1.69248e-15 
0.000263807 1.84488e-10 -4.74565e-10 2.77953e-09 -5.7401e-06 -8.25248e-05 0.000250501 0.0248795 
0.000754269 -1.12088e-09 -2.48815e-09 7.94072e-09 -1.29999e-05 -0.000191583 0.000729416 -0.0195921 
0.000206475 3.79159e-10 -1.0243e-09 3.45945e-09 -1.0401e-06 -2.68185e-05 0.000204724 -0.00410813 
0 0 0 0 0 0 0 0 
0.000984185 -2.8968e-10 -2.43981e-09 1.22817e-08 -2.27623e-05 -0.000191714 0.000965064 -8.19943e-16 
8.15674e-05 -7.49792e-12 -3.34573e-10 1.99041e-09 -3.03014e-07 -1.35211e-05 8.04384e-05 7.44733e-18 
0.00035549 -8.52577e-11 -1.76905e-09 4.02531e-09 -6.89181e-06 -0.000143001 0.000325386 2.49513e-16 
0.000481778 1.55652e-10 7.70687e-10 2.096e-09 -2.35028e-05 0.000141257 0.000460004 -0.0275675 
0.00072972 -2.80995e-09 3.27492e-09 1.13757e-08 -5.16977e-06 0.000143736 0.000715405 0.321343 
0.000388366 -9.5071e-11 8.67699e-10 4.89132e-09 -7.43113e-06 6.78229e-05 0.000382325 -1.94455e-16 
0.00136811 -7.64688e-10 3.89342e-09 1.69646e-08 -3.16417e-05 0.000266501 0.00134153 -0.044381 
5.17553e-05 -2.21349e-11 2.67309e-10 4.57988e-10 -2.15844e-06 2.60662e-05 4.46599e-05 -5.61555e-19 
0 0 0 0 0 0 0 0 
0 0 0 0 0 0 0 0 
8.80071e-05 -1.32707e-11 3.32881e-10 1.38342e-09 -8.20757e-07 2.05878e-05 8.55612e-05 -8.54795e-18 
0.000255542 -2.40625e-09 1.84646e-10 4.29397e-09 -3.57011e-06 6.49106e-05 0.000247135 0.24238 
0.000440044 -1.44114e-10 1.72084e-09 4.3133e-09 -1.36493e-05 0.000162984 0.00040852 8.72676e-18 
4.73745e-05 -1.49657e-11 1.0833e-10 3.74206e-10 -1.81859e-06 1.31639e-05 4.54725e-05 -6.99788e-19 
0.00112354 -5.0203e-10 6.17651e-09 9.68158e-09 -4.90692e-05 0.000603702 0.000946293 -2.8819e-16 
0.000208268 1.16485e-09 2.73812e-10 1.73721e-09 -9.52026e-06 7.6229e-05 0.000193582 0.059965 
0.0010588 -6.66285e-10 3.18109e-09 7.7342e-09 -6.10643e-05 0.000411186 0.000973785 -0.00365869 