ITEM: TIMESTEP
290
ITEM: NUMBER OF SURFS
6916
ITEM: BOX BOUNDS oo rr rr
-0.35 0.35
-0.25 0.25
-0.25 0.25
ITEM: SURFS f_save[1] f_save[2] f_save[3] f_save[4] f_save[5] f_save[6] f_save[7] f_save[8] 
0.00494232 -3.70829e-08 2.66606e-09 -3.71576e-10 -0.00494232 0 0 3.8548 
0 0 0 0 0 0 0 0 
0 0 0 0 0 0 0 0 
0 0 0 0 0 0 0 0 
0.00939624 -2.29034e-08 0 0 -0.00939624 0 0 0 
0.00727379 -1.77299e-08 0 0 -0.00727379 0 0 0 
0 0 0 0 0 0 0 0 
0.00800586 -1.9014e-08 0 0 -0.00800586 0 0 0 
0.0113848 -2.70389e-08 0 0 -0.0113848 0 0 0 
0 0 0 0 0 0 0 0 
0 0 0 0 0 0 0 0 
0.00792053 -1.93063e-08 0 0 -0.00792053 0 0 0 
0.0171173 -4.17234e-08 0 0 -0.0171173 0 0 0 
0.00528938 -1.25623e-08 0 0 -0.00528938 0 0 0 
0.00812447 -1.92957e-08 0 0 -0.00812447 0 0 0 
0 0 0 0 0 0 0 0 
0 0 0 0 0 0 0 0 
0.00758862 -1.80229e-08 0 0 -0.00758862 0 0 0 
0 0 0 0 0 0 0 0 
0 0 0 0 0 0 0 0 
0.00595104 -1.41337e-08 0 0 -0.00595104 0 0 0 
0 0 0 0 0 0 0 0 
0 0 0 0 0 0 0 0 
0.00290984 -6.91087e-09 0 0 -0.00290984 0 0 0 
0.00390999 -9.28625e-09 0 0 -0.00390999 0 0 0 
0 0 0 0 0 0 0 0 
0 0 0 0 0 0 0 0 
0.00371014 -8.81159e-09 0 0 -0.00371014 0 0 0 
0 0 0 0 0 0 0 0 
0.00479127 -1.19783e-08 0 0 -0.00479127 0 0 4.57521e-15 
0.0039782 -1.88964e-07 -9.3119e-10 -2.52574e-09 -0.0039782 0 0 0.508014 
0.0042598 -3.66343e-07 2.71151e-09 -2.71483e-09 -0.0042598 0 0 0.676699 
0.00221825 -1.05367e-07 0 0 -0.00221825 0 0 0 
0.0076869 -1.92172e-08 0 0 -0.0076869 0 0 0 
0 0 0 0 0 0 0 0 
0.000467501 1.11032e-09 0 0 0.000467501 0 0 0 
0.000478687 1.13688e-09 0 0 0.000478687 0 0 0 
0.00138714 1.69057e-09 0 0 0.00138714 0 0 0 
0 0 0 0 0 0 0 0 
0 0 0 0 0 0 0 0 
0 0 0 0 0 0 0 0 
0 0 0 0 0 0 0 0 
0 0 0 0 0 0 0 0 
0 0 0 0 0 0 0 0 
0.00035886 8.52293e-10 0 0 0.00035886 0 0 0 
0 0 0 0 0 0 0 0 
0 0 0 0 0 0 0 0 
0.00044788 1.06371e-09 0 0 0.00044788 0 0 0 
0 0 0 0 0 0 0 0 
0 0 0 0 0 0 0 0 
0.000811712 1.97855e-09 0 0 0.000811712 0 0 0 
0 0 0 0 0 0 0 0 
0 0 0 0 0 0 0 0 
0 0 0 0 0 0 0 0 
0 0 0 0 0 0 0 0 
0.000819117 1.9966e-09 0 0 0.000819117 0 0 0 
0.000816644 1.99057e-09 0 0 0.000816644 0 0 0 
0.000482611 1.17636e-09 -7.01539e-10 1.33878e-09 0.000482611 0 0 -0.0962217 
0 0 0 0 0 0 0 0 
0 0 0 0 0 0 0 0 
0.000286351 6.97982e-10 0 0 0.000286351 0 0 0 
0 0 0 0 0 0 0 0 
1.25205e-05 -3.1464e-07 2.51543e-07 2.55753e-07 0 8.85333e-06 8.85334e-06 0.0193502 
1.21404e-05 -1.78051e-07 -1.06875e-07 -1.14608e-07 0 -8.58459e-06 -8.58459e-06 0.0239039 
0.000235478 -7.50883e-09 1.34222e-07 8.09312e-10 0 0.000235478 0 0.0194831 
0.000229736 -1.06587e-08 -1.3095e-07 -6.38346e-09 0 -0.000229736 0 0.0419026 
0.000180333 4.37524e-09 1.0279e-07 -5.93047e-10 0 0.000180333 0 0.00172247 
0.000275789 -9.30963e-09 -1.572e-07 -2.16108e-09 0 -0.000275789 0 0.0247747 
0.000243804 2.98395e-09 1.38968e-07 4.27068e-09 0 0.000243804 0 -0.00213469 
0.000297972 -9.94309e-09 -2.22399e-09 1.69844e-07 0 0 0.000297972 0.029337 
0.000237741 -3.74017e-09 1.47593e-09 1.39078e-07 0 0 0.000237741 0.0328934 
0.000231887 6.25549e-09 2.23864e-09 -1.35654e-07 0 0 -0.000231887 -0.00121108 
0.000241246 7.79584e-09 4.88163e-09 1.41129e-07 0 0 0.000241246 -0.00258504 
0.000144382 -4.39458e-09 8.22979e-08 1.25263e-09 0 0.000144382 0 0.0204792 
7.79833e-05 -8.29054e-09 4.56202e-08 -5.24658e-09 0 7.79833e-05 0 0.031139 
0.000159928 -1.43606e-08 -1.77998e-09 -9.11588e-08 0 0 -0.000159928 0.0597441 
0.000181757 1.13032e-09 1.03602e-07 -1.44355e-09 0 0.000181757 0 0.00268423 
0.000190905 -1.39112e-08 -1.08816e-07 3.19951e-09 0 -0.000190905 0 0.0508612 
0.000254806 -1.79538e-08 -4.30014e-09 1.45239e-07 0 0 0.000254806 0.0670343 
0.000238682 3.89302e-09 -5.76779e-09 1.36049e-07 0 0 0.000238682 0.0050899 
0.000158216 -1.1224e-08 1.57026e-09 -9.01831e-08 0 0 -0.000158216 0.0327731 
0.000170773 -1.46737e-09 -9.73407e-08 -6.80867e-09 0 -0.000170773 0 0.0112692 
0.000184293 -8.85698e-09 1.05047e-07 -2.12718e-09 0 0.000184293 0 0.0360182 
0.000177441 3.52226e-09 1.22668e-09 -1.01141e-07 0 0 -0.000177441 -0.00241541 
0.000182424 -7.45625e-09 1.06718e-07 -2.8466e-09 0 0.000182424 0 0.0113208 
0.000143166 2.54342e-09 -1.3196e-09 8.37524e-08 0 0 0.000143166 -0.000648741 
0.000226174 3.22088e-09 -1.32312e-07 -5.56593e-10 0 -0.000226174 0 -0.000192018 
9.45339e-05 2.73662e-09 -1.64089e-09 -5.38843e-08 0 0 -9.45339e-05 0.000271043 
0.000186075 1.92166e-09 -1.08854e-07 2.37368e-09 0 -0.000186075 0 -0.000122416 
0.000211136 -1.8719e-08 5.29587e-09 1.23515e-07 0 0 0.000211136 0.0571686 
0.000143467 -5.05806e-09 1.96411e-09 -8.17759e-08 0 0 -0.000143467 0.0278012 
0.000119928 -2.72463e-09 -7.01581e-08 -5.09478e-09 0 -0.000119928 0 0.0196579 
0.000208764 1.61044e-09 -1.18995e-07 -5.75749e-09 0 -0.000208764 0 0.00108634 
0.000170207 2.58088e-10 5.137e-10 4.97855e-08 0 0 0.000170207 -0.00140509 
0.000121162 -4.4342e-09 -2.82295e-10 6.90623e-08 0 0 0.000121162 0.0196386 
0.000180867 -1.46513e-08 2.65057e-09 -1.03094e-07 0 0 -0.000180867 0.0560744 
9.46986e-05 -9.76304e-09 -2.46066e-09 5.39782e-08 0 0 9.46986e-05 0.0329539 
0.000110014 -9.54893e-09 -6.27083e-08 2.20891e-09 0 -0.000110014 0 0.0348197 
0.000155236 -6.01632e-09 4.25941e-10 -8.84848e-08 0 3.04378e-11 -0.000155236 0.0274131 
0.000155389 1.36032e-09 -8.85718e-08 5.14202e-09 0 -0.000155389 0 -0.000377259 
0.000105945 -1.78638e-08 -6.03888e-08 1.73076e-09 0 -0.000105945 0 0.0503838 
6.53771e-05 4.58706e-11 -1.33206e-09 3.72649e-08 0 0 6.53771e-05 -0.000413691 
0.000216899 -1.52459e-09 1.23632e-07 2.16003e-09 0 0.000216899 0 0.0128666 
6.74892e-05 2.23454e-09 1.58291e-09 -3.84688e-08 0 0 -6.74892e-05 -0.00384938 
0.000237646 -8.72538e-09 -1.35458e-07 3.55244e-10 0 -0.000237646 0 0.0211241 
0.000175648 -9.88788e-09 3.88068e-09 -1.00119e-07 0 0 -0.000175648 0.0330769 
0.00023813 -4.91328e-10 1.69659e-08 1.213e-09 -4.53013e-07 0.00023813 0 -0.00965056 
0.000634539 1.86131e-10 1.15572e-08 -3.38302e-10 -4.30367e-05 0.000632423 -2.87915e-05 -0.050847 
0.000264837 -4.68168e-11 4.26922e-09 -1.48137e-10 -2.90232e-06 0.000264662 -9.18351e-06 -1.10794e-17 
0.000489955 7.8794e-10 8.79609e-09 -1.38505e-09 -1.52019e-05 0.000489043 -2.57222e-05 -0.0346529 
0.000241271 -6.99504e-11 3.97723e-09 -4.49863e-11 -4.24248e-06 0.000241218 -2.72841e-06 9.03278e-18 
0.000616552 -1.95553e-11 1.15604e-09 0 -1.0428e-05 0.000616464 0 -1.58839e-17 
0.00034757 -1.99903e-10 8.37977e-09 -4.07971e-10 -1.83901e-07 0.00034754 4.62936e-06 -0.00190636 
0.00070339 -7.11446e-10 1.29776e-08 2.45025e-10 -2.69179e-05 0.000702737 1.39088e-05 -0.0632904 
0.000269927 -5.25409e-11 4.35125e-09 1.50984e-10 -3.25714e-06 0.000269745 9.35986e-06 -1.29258e-17 
0.000271928 -9.87583e-11 1.93749e-08 1.00207e-09 -1.29531e-07 0.000271928 0 -0.020408 
0.000133274 -3.09109e-10 -1.08499e-09 9.49523e-09 -2.53538e-07 0 0.000133274 -0.00329696 
0.000340233 -1.77373e-09 1.25915e-09 6.0203e-09 -2.30758e-05 1.54377e-05 0.000339099 0.00410541 
0.00014378 -7.64821e-11 1.08109e-09 2.28248e-09 -1.57567e-06 4.98573e-06 0.000143685 0.0175043 
2.05985e-05 1.90901e-10 1.39745e-10 3.70419e-10 -6.39112e-07 1.0814e-06 2.05602e-05 -0.000897761 
0.000332262 -2.54228e-10 -7.09734e-10 5.48312e-09 -5.84244e-06 3.75738e-06 0.000332189 0.00942686 
0 0 0 0 0 0 0 0 
0.000164074 -2.09148e-12 -5.26492e-11 3.95253e-09 -8.6812e-08 -2.18533e-06 0.000164059 3.32274e-18 
0.000197753 -4.51368e-12 1.63553e-10 3.66065e-09 -7.56776e-06 -3.91035e-06 0.000197569 0.0111935 
0.000236321 -4.59996e-11 -1.32187e-10 3.80952e-09 -2.85162e-06 -8.19456e-06 0.000236161 -2.0312e-17 
0.000159539 1.07449e-09 -2.13816e-09 1.13677e-08 -7.59948e-08 0 0.000159539 0.0079278 
0.000191152 2.14582e-09 -1.36237e-08 1.05659e-09 -3.63642e-07 -0.000191151 0 -0.0075717 
0.000235943 -2.90558e-10 -4.26974e-09 1.94383e-10 -1.60024e-05 -0.000235156 1.07056e-05 1.47645e-17 
0.000305153 2.70069e-10 -4.91541e-09 3.7998e-10 -3.34414e-06 -0.000304952 1.05815e-05 0.00780121 
0.000278845 -1.83097e-10 -5.00785e-09 3.80942e-10 -8.65174e-06 -0.000278326 1.46391e-05 0.00602332 
0.000228672 -6.62976e-11 -3.76954e-09 4.26371e-11 -4.02093e-06 -0.000228622 2.58593e-06 -3.61311e-18 
0 0 0 0 0 0 0 0 
0.000363773 -4.63709e-12 -8.76327e-09 -1.1673e-10 -1.92473e-07 -0.000363741 -4.84516e-06 1.54546e-17 
0.000211859 -1.49817e-10 -3.91123e-09 -7.74123e-11 -8.1076e-06 -0.000211663 -4.1893e-06 2.03107e-16 
0 0 0 0 0 0 0 0 
0.00023629 -2.55454e-10 -1.68356e-08 1.36791e-09 -1.12555e-07 -0.00023629 0 0.00218788 
0.000376728 -6.19138e-09 1.71086e-10 -2.68302e-08 -7.16678e-07 0 -0.000376727 0.153375 
0.000464859 -5.72463e-10 -3.82977e-10 -8.41234e-09 -3.15283e-05 -2.10924e-05 -0.000463309 2.50176e-17 
0.000172832 -1.13503e-08 -9.14051e-10 -2.63358e-09 -1.89404e-06 -5.99312e-06 -0.000172718 1.03017 
3.90069e-05 -1.78987e-10 3.11533e-10 -7.14958e-10 -1.21027e-06 -2.04783e-06 -3.89343e-05 -0.000541128 
0.000290948 -8.52493e-10 -6.55319e-10 -4.77582e-09 -5.11599e-06 -3.29018e-06 -0.000290884 -0.0330439 
0 0 0 0 0 0 0 0 
0.000138297 -1.02734e-08 9.89237e-10 -3.31355e-09 -7.31735e-08 1.84201e-06 -0.000138285 0.849932 
0.000402201 -2.84418e-10 1.46962e-10 -7.42521e-09 -1.53918e-05 7.95311e-06 -0.000401828 -2.09554e-17 
0.00012301 -2.39437e-11 6.88058e-11 -1.98293e-09 -1.48433e-06 4.26544e-06 -0.000122927 -1.84655e-18 
0.000142845 -3.11407e-10 3.34289e-10 -1.01775e-08 -6.80427e-08 0 -0.000142845 -0.0022353 
0 0 0 0 0 0 0 0 
0 0 0 0 0 0 0 0 
0 0 0 0 0 0 0 0 
0 0 0 0 0 0 0 0 
0 0 0 0 0 0 0 0 
0 0 0 0 0 0 0 0 
0 0 0 0 0 0 0 0 
0 0 0 0 0 0 0 0 
0 0 0 0 0 0 0 0 
0 0 0 0 0 0 0 0 
0 0 0 0 0 0 0 0 
0 0 0 0 0 0 0 0 
0 0 0 0 0 0 0 0 
0 0 0 0 0 0 0 0 
0 0 0 0 0 0 0 0 
0 0 0 0 0 0 0 0 
0.000251097 -1.02751e-09 5.79863e-09 -1.55716e-10 -4.37962e-05 0.000247159 -6.63721e-06 2.03139e-17 
4.39423e-05 -1.31989e-10 5.21806e-10 -1.05318e-10 -1.05751e-05 4.18078e-05 -8.43824e-06 0 
0.000503753 -8.24983e-10 3.72045e-09 -3.0183e-10 -0.000108714 0.000490272 -3.97744e-05 0 
0.00076721 -2.46597e-09 1.31091e-08 -1.08769e-09 -0.000141365 0.000751492 -6.23533e-05 -2.32228e-16 
0.000636323 -1.79817e-09 1.20137e-08 -1.72929e-09 -0.00012405 0.000619981 -7.17026e-05 -0.00113465 
0.000509667 -7.78078e-10 3.5005e-09 -5.47394e-10 -0.000120468 0.000491921 -5.71166e-05 0.0361612 
8.95288e-05 -2.44126e-10 1.10175e-09 -1.65921e-10 -1.9162e-05 8.6479e-05 -1.30235e-05 -7.01407e-18 
0.0001396 -4.20531e-10 1.81741e-09 -2.50277e-10 -3.11913e-05 0.000134799 -1.85633e-05 0 
0.00051033 -1.07984e-09 5.78258e-09 -1.3258e-09 -0.000118895 0.00048468 -0.000106706 0.0188369 
0.000405954 -1.1959e-09 4.49153e-09 -7.18564e-10 -7.79102e-05 0.000397945 -1.91906e-05 0.0327443 
0.000102788 -2.92288e-10 1.1532e-09 -2.68715e-10 -2.46332e-05 9.71888e-05 -2.26466e-05 -1.25517e-17 
9.03779e-05 -3.03068e-10 1.69788e-09 6.42547e-11 -1.58702e-05 8.89099e-05 3.36471e-06 -1.55979e-18 
0.00030408 -1.03811e-08 2.21831e-09 3.06705e-10 -6.37498e-05 0.000295905 2.89957e-05 1.13265 
0.000323262 -9.46013e-10 7.4754e-09 1.04766e-09 -5.69619e-05 0.00031798 1.1948e-05 0.0221172 
0.00115917 -2.71251e-09 1.03251e-08 2.08395e-09 -0.000289076 0.00110036 0.000222091 -2.03163e-16 
0.000742638 -1.19302e-09 4.83213e-09 7.31646e-10 -0.000176114 0.000713323 0.000108006 -2.81416e-16 
0.000563347 -3.91315e-09 5.97196e-09 3.1712e-09 -0.00012812 0.000541015 9.08179e-05 -0.0554832 
0.000586756 -1.64518e-09 7.70422e-09 9.53595e-10 -0.000121646 0.00056966 7.051e-05 -8.47949e-17 
0.000516783 -1.08465e-09 5.3342e-09 4.55723e-10 -0.000102616 0.000504655 4.31147e-05 -1.12722e-17 
0.000182931 -4.59743e-10 3.51631e-09 -9.1053e-10 -3.28396e-05 0.000179738 8.93374e-06 0.0224326 
0.000591359 -1.95216e-09 1.04149e-08 -7.33211e-10 -0.000115707 0.000573726 8.45915e-05 0.0230888 
3.63165e-05 -8.73953e-11 4.08556e-10 6.89144e-11 -7.49542e-06 3.50396e-05 5.91041e-06 0 
0.000338088 -2.11415e-09 6.92381e-10 3.712e-09 -6.08972e-05 3.09295e-05 0.000331117 -0.0279639 
0.000311231 -5.26436e-10 2.60434e-10 2.13945e-09 -7.38496e-05 3.65343e-05 0.000300127 0 
0.000615425 9.57178e-10 -7.41002e-10 1.1219e-08 -0.000112148 4.04451e-05 0.000603767 0.0130791 
0.00015691 -5.71614e-10 2.1393e-10 2.9225e-09 -3.00421e-05 1.12435e-05 0.000153597 -1.56549e-18 
0.000682967 -1.55103e-09 4.33565e-10 7.64737e-09 -0.000135545 3.78895e-05 0.000668309 -2.47292e-17 
0.000708692 -1.38644e-09 3.32624e-10 1.03221e-08 -0.000147087 5.56547e-05 0.000691022 0.0235924 
0.00050839 -1.01615e-08 8.73469e-10 3.38966e-09 -0.000111859 0.000112237 0.000483064 1.31364 
9.75282e-05 -1.60233e-10 8.81664e-11 6.58485e-10 -2.28665e-05 1.2582e-05 9.39711e-05 -8.5016e-18 
0.000220828 -8.59553e-10 7.12325e-10 4.10858e-09 -3.95254e-05 8.2162e-06 0.000217107 -0.00289778 
0.00108429 -1.30498e-09 2.44452e-09 1.06735e-08 -0.000257093 0.000297099 0.00101061 -0.039285 
0.000279896 -5.47999e-10 2.55702e-10 2.12542e-09 -6.05327e-05 6.41652e-05 0.000265632 -0.0500664 
0.000232891 -7.51565e-10 -4.06284e-11 4.82814e-09 -4.37157e-05 -1.39094e-05 0.000228328 -0.0144726 
0.000477193 -8.07156e-10 -3.9931e-10 3.2803e-09 -0.00011323 -5.60161e-05 0.000460168 1.34758e-16 
0.000452961 -8.29042e-10 -9.93969e-10 3.23686e-09 -0.000107722 -0.000129152 0.000420582 3.87034e-18 
0.000200731 -3.08887e-10 -1.08637e-10 1.33909e-09 -4.49774e-05 -1.58187e-05 0.000194987 4.33728e-18 
0.000341614 -8.95226e-10 -9.12318e-10 3.54789e-09 -8.10961e-05 -8.26443e-05 0.000321393 -4.31727e-17 
0.000458698 -1.067e-09 -1.02011e-09 4.91333e-09 -9.54001e-05 -9.12074e-05 0.000439299 -7.98964e-18 
0.000253657 -5.46848e-10 -2.28284e-10 2.6903e-09 -5.03529e-05 -2.10201e-05 0.000247719 0 
0.000139597 -1.24129e-09 3.86544e-10 2.28106e-09 -2.70283e-05 -1.34801e-05 0.000136291 -0.00711548 
0.000440908 -8.74561e-09 -6.06733e-10 2.96151e-08 -7.65521e-05 -4.72273e-06 0.000434186 0.107347 
0.000188645 -7.4177e-10 -8.56272e-10 4.44816e-09 -3.34562e-05 -1.34431e-05 0.000185168 0.00344848 
0.000505234 -2.14003e-09 -1.17033e-08 -1.50168e-09 -8.81226e-05 -0.000497311 1.33548e-05 -0.00522265 
0.000434477 -1.30503e-09 -5.15933e-09 1.04133e-09 -0.000104561 -0.000413372 8.34326e-05 -6.68234e-17 
0.000367709 -6.02187e-10 -2.7157e-09 2.20317e-10 -7.93548e-05 -0.000357868 2.90329e-05 3.92522e-17 
0.000295267 -9.4905e-10 -5.04513e-09 4.18608e-10 -5.44054e-05 -0.000289218 2.39972e-05 -1.87831e-17 
0.000366735 -6.68016e-10 -7.02796e-09 7.34466e-10 -7.14945e-05 -0.000357317 4.13248e-05 0.00112967 
6.70106e-05 -1.1262e-10 -4.59872e-10 5.33954e-11 -1.58391e-05 -6.46772e-05 7.50963e-06 -2.09463e-18 
0.000322259 -8.78733e-10 -3.96575e-09 5.97234e-10 -6.89737e-05 -0.000311281 4.68782e-05 -1.40281e-17 
9.02547e-05 -2.71883e-10 -1.17499e-09 1.6181e-10 -2.01658e-05 -8.71505e-05 1.20016e-05 6.62794e-18 
0.000406869 -6.23795e-09 -3.45612e-09 3.08117e-10 -9.47907e-05 -0.000386419 8.50732e-05 0.816504 
7.53628e-05 -1.66257e-10 -8.49197e-10 4.09519e-11 -1.44635e-05 -7.3876e-05 3.56261e-06 5.1826e-18 
0.000787618 -5.95341e-10 -9.53445e-09 8.52311e-10 -0.000188754 -0.000744716 0.000173531 -0.0363575 
0.000434187 -7.64657e-10 -8.27822e-09 -3.62088e-10 -7.62426e-05 -0.000427135 -1.61645e-05 -0.00594563 
5.77974e-05 -3.85515e-10 -7.65092e-10 -4.39225e-11 -1.21171e-05 -5.62436e-05 -5.51131e-06 -7.17167e-05 
0.000320853 -6.86046e-10 -7.47106e-09 -8.78745e-10 -5.65375e-05 -0.00031561 -1.18589e-05 0.014076 
0.000570828 -1.33576e-09 -5.08452e-09 -1.02623e-09 -0.000142354 -0.000541866 -0.000109367 1.26977e-17 
0 0 0 0 0 0 0 0 
0.000293443 -8.45413e-10 -3.56993e-09 -5.99269e-10 -6.67368e-05 -0.00028181 -4.73062e-05 3.52704e-18 
0.00038733 -1.08602e-09 -5.08572e-09 -6.29488e-10 -8.03015e-05 -0.000376045 -4.65452e-05 -1.32148e-17 
0.000268368 -1.30708e-09 -2.68899e-09 5.84601e-10 -5.32889e-05 -0.00026207 -2.23894e-05 -0.0229084 
0.000206328 -7.07254e-10 -3.87095e-09 -1.92403e-10 -3.70397e-05 -0.000202726 -1.00764e-05 6.62984e-18 
0.000522234 -1.80125e-09 -8.64627e-09 -2.9851e-09 -0.000102182 -0.000506662 -7.47034e-05 0.00197376 
0.000408786 -9.83738e-10 -4.59879e-09 -7.75714e-10 -8.43699e-05 -0.000394413 -6.65288e-05 1.73716e-16 
0 0 0 0 0 0 0 0 
0 0 0 0 0 0 0 0 
0.000666802 -2.12908e-09 -7.67832e-10 -1.14623e-08 -0.00012151 -4.38215e-05 -0.000654171 5.14244e-17 
0.000127685 -4.60475e-10 -9.89853e-10 -2.31937e-09 -2.44466e-05 -9.14931e-06 -0.000124989 0.00759643 
0.000489466 -1.22528e-08 -1.45203e-09 -3.15633e-09 -9.71419e-05 -2.71545e-05 -0.00047896 1.44238 
0.000593223 -2.49852e-09 -3.03699e-09 -8.13336e-09 -0.000123122 -4.65868e-05 -0.000578432 0.0149399 
0.000599591 -1.34358e-09 -2.52686e-09 -6.11398e-09 -0.000131925 -0.000132372 -0.000569721 -0.00348533 
0.000574325 -9.43584e-10 -5.1919e-10 -3.87769e-09 -0.000134657 -7.40925e-05 -0.000553378 0 
0.000343599 -1.17517e-09 -2.44284e-10 -6.45501e-09 -6.14998e-05 -1.2784e-05 -0.000337809 -2.33823e-17 
0 0 0 0 0 0 0 0 
0.000417557 -9.94297e-09 -2.36319e-10 -1.12629e-09 -9.03045e-05 -9.57236e-05 -0.000396277 2.07994 
0.000189605 -7.45309e-10 2.37141e-10 -3.89277e-09 -3.55904e-05 1.13241e-05 -0.00018589 -5.68956e-18 
0.00099527 -1.68346e-09 8.3283e-10 -6.84164e-09 -0.00023616 0.000116831 -0.000959761 -8.02281e-16 
0.000224559 -4.11004e-10 4.92768e-10 -1.6047e-09 -5.34039e-05 6.40279e-05 -0.000208507 -9.67586e-18 
0 0 0 0 0 0 0 0 
5.77648e-05 -1.51377e-10 1.54267e-10 -5.99925e-10 -1.37128e-05 1.39746e-05 -5.43456e-05 -4.04744e-18 
0.00010062 -2.34057e-10 2.2377e-10 -1.07779e-09 -2.09269e-05 2.00072e-05 -9.63643e-05 -1.33161e-18 
0.000246983 -1.24198e-10 4.53e-10 -2.68292e-09 -4.9028e-05 2.0467e-05 -0.000241201 -0.0139855 
0.000853248 3.44175e-10 2.28275e-09 -1.50557e-08 -0.000165203 8.23929e-05 -0.000833038 -0.000693213 
0.00034186 -2.90313e-09 1.0774e-09 -2.36393e-08 -5.93549e-05 3.66179e-06 -0.000336647 0.00715956 
0.000911486 -4.76302e-09 3.5408e-11 -2.15771e-08 -0.000161652 6.49536e-05 -0.000894683 -0.00860314 
0.000371536 -1.45219e-10 1.57147e-09 -2.43848e-11 -2.09045e-05 0.00034912 0.000125368 -0.00977568 
0.00166876 -3.75061e-10 7.3408e-09 2.2542e-09 -8.14079e-05 0.00159334 0.00048928 5.65712e-17 
0 0 0 0 0 0 0 0 
0.000163446 -5.34791e-11 1.5719e-09 6.61679e-10 -5.12267e-06 0.000150569 6.33812e-05 -2.85322e-18 
0.000241664 -8.37258e-12 6.74228e-09 5.24803e-10 -2.99194e-07 0.000240935 1.87538e-05 3.19328e-18 
0.000797162 -2.03187e-10 2.74023e-09 1.42214e-09 -5.23512e-05 0.000706021 0.000366416 9.20946e-17 
0.00029582 -6.1989e-10 1.6485e-09 2.04327e-09 -1.53256e-05 0.000272155 0.000114919 0.0128006 
0.00293355 -6.50192e-10 1.30405e-08 7.55524e-09 -0.000126441 0.00253595 0.00146925 -7.41447e-16 
0.000452794 -7.96878e-10 3.37622e-09 1.19017e-09 -2.32022e-05 0.000420753 0.000165685 0.0307878 
8.37656e-05 1.73104e-10 1.73538e-10 1.48865e-09 -3.35364e-06 7.85111e-05 2.90078e-05 0.0624774 
0.000169663 -4.69889e-11 1.66039e-09 6.31547e-10 -4.48621e-06 0.000158524 6.02962e-05 -7.10962e-19 
0.000173138 -2.46035e-11 1.3318e-09 3.94178e-10 -3.06652e-06 0.000165993 4.91294e-05 -2.59878e-17 
0 0 0 0 0 0 0 0 
0.000126541 -1.57178e-11 2.08655e-09 3.43569e-10 -9.40532e-07 0.000124856 2.05587e-05 2.62903e-17 
0.000372021 -4.08623e-09 9.0058e-09 1.88348e-09 -1.35243e-06 0.000367316 5.89653e-05 0.318061 
0.000449821 -1.65232e-10 3.02207e-09 2.15231e-09 -2.00129e-05 0.000366033 0.000260687 -1.12743e-16 
0 0 0 0 0 0 0 0 
0.000189735 -3.57312e-11 9.408e-10 3.62584e-10 -6.71973e-06 0.00017693 6.81889e-05 -2.8009e-18 
0.000102311 -2.29949e-11 4.50064e-10 -1.38205e-10 -4.9911e-06 9.76874e-05 -2.99977e-05 0 
0 0 0 0 0 0 0 0 
0.00027214 -7.25594e-11 2.93351e-09 -6.95686e-10 -6.54772e-06 0.000264719 -6.27783e-05 -5.37587e-18 
0.000561949 -1.53207e-09 6.03373e-09 -1.56492e-09 -1.11822e-05 0.000549418 -0.000117481 -0.000698703 
0 0 0 0 0 0 0 0 
0.00457068 -2.34555e-09 3.01784e-08 -1.7871e-08 -0.00030499 0.00392407 -0.00232375 -1.48728e-15 
0.000335891 -4.01149e-10 5.59611e-09 -5.79008e-10 -1.12916e-06 0.000332964 -4.42322e-05 -0.00042553 
0.00293344 -4.18792e-10 2.34978e-08 -6.17168e-09 -5.0559e-05 0.00283679 -0.000745081 1.42403e-15 
0.00039518 -7.16148e-10 3.84701e-09 -1.63728e-09 -1.03531e-05 0.000371241 -0.000135057 -0.00582858 
0.000864483 3.20818e-10 7.68155e-09 -4.46045e-09 -3.28948e-05 0.000746075 -0.000435454 0.0117876 
0.000237832 -1.0627e-10 2.04941e-09 -1.30745e-09 -1.0387e-05 0.000200312 -0.000127792 -5.8228e-18 
0 0 0 0 0 0 0 0 
0.00134144 -2.72155e-10 5.13764e-09 -1.75112e-09 -6.71757e-05 0.00126812 -0.000432227 -4.70542e-16 
0.000664193 -1.52341e-10 2.53376e-09 -9.23834e-10 -3.74585e-05 0.000623016 -0.000227158 2.19724e-17 
0.000404708 6.71217e-10 7.81549e-09 -1.54824e-09 -1.1058e-06 0.000403644 -2.93044e-05 0.0279166 
0.000159829 2.04004e-10 1.49338e-09 -4.65272e-10 -3.98053e-06 0.000155317 -3.74968e-05 0.0237406 
0.0047671 -1.21509e-09 1.63868e-08 -8.50455e-09 -0.00031307 0.00422207 -0.0021912 -1.96469e-15 
0.000886169 -2.04289e-10 1.36926e-09 -3.26429e-09 -5.10572e-05 0.000342213 -0.00081583 -1.19112e-16 
0.00320999 -1.61712e-10 9.42209e-10 -3.15619e-09 -0.000157407 0.000917125 -0.00307216 1.73962e-16 
0.000492193 -7.56153e-11 9.47776e-10 -5.27355e-09 -1.24813e-05 0.000145913 -0.000469902 0.00907743 
0.000475935 -3.38969e-09 1.57521e-09 -9.04396e-09 -5.82363e-06 6.37728e-05 -0.000471607 0.506362 
0.000848382 -4.44005e-10 4.18725e-09 -4.90834e-09 -5.82474e-05 0.000549311 -0.000643907 5.07989e-16 
0.00130545 -3.01616e-10 2.03098e-09 -4.80983e-09 -7.5289e-05 0.000506971 -0.00120063 5.57649e-17 
0 0 0 0 0 0 0 0 
0 0 0 0 0 0 0 0 
0.000289584 4.7385e-10 4.59576e-10 -2.31872e-09 -1.18415e-05 0.000111462 -0.000267011 0.0342061 
0 0 0 0 0 0 0 0 
0.000887395 -7.11394e-10 -1.43051e-09 -1.04006e-08 -1.86671e-05 0.000240689 -0.000853927 1.28212 
0.000284053 -2.04837e-10 1.55654e-09 -2.79811e-09 -5.84565e-06 6.98307e-05 -0.000275273 -0.00181864 
0.000847841 -2.50229e-09 8.03538e-09 -1.25876e-08 -9.03339e-06 0.000189624 -0.000826314 0.925068 
0.000151569 1.53054e-10 1.57019e-09 -2.18943e-09 -1.14977e-06 2.9855e-05 -0.000148595 -0.0201143 
0 0 0 0 0 0 0 0 
0.000953458 -1.73674e-09 3.96728e-09 -1.48295e-08 -1.47183e-05 0.000292665 -0.000907311 -0.00105733 
0.000428992 -7.5127e-09 1.79143e-09 -1.04539e-08 -9.87753e-07 5.6114e-05 -0.000425305 0.723539 
0.000463067 1.20677e-12 -1.1228e-11 -2.69588e-09 2.07284e-07 -1.9286e-06 -0.000463062 -2.04655e-17 
0.000281149 -1.4376e-10 -1.16732e-09 -2.41089e-09 -1.0526e-05 -7.1519e-05 -0.000271697 0.047801 
0.000103471 9.69221e-10 -9.16608e-10 -1.68679e-09 -7.30602e-07 -1.34394e-05 -0.000102592 0.000266265 
0.000610239 -1.3699e-10 -1.63643e-09 -6.45086e-09 -1.25585e-05 -0.000150019 -0.000591379 -2.29377e-16 
0.000508435 -4.89464e-09 -2.33203e-09 -4.95412e-09 -1.26453e-05 -0.000137892 -0.000489216 0.686774 
0.000483354 4.14633e-10 -9.32393e-10 -2.38439e-09 -1.99055e-05 -0.000192683 -0.000442841 0.0808174 
0.000372909 -1.92633e-10 -1.58553e-09 -2.36061e-09 -2.52036e-05 -0.000207447 -0.000308855 -7.79442e-18 
0 0 0 0 0 0 0 0 
0.000431273 -9.50695e-11 -1.32281e-09 -7.27208e-09 -5.54665e-06 -7.71771e-05 -0.000424276 -6.95139e-17 
0.000813358 -1.25626e-09 -4.43991e-09 -7.30926e-09 -2.19644e-05 -0.000315444 -0.000749375 -0.00664473 
0 0 0 0 0 0 0 0 
0.000289115 -7.17123e-10 -1.01016e-09 -2.03202e-09 -1.18223e-05 -0.000111281 -0.000266578 -0.104787 
0.000360473 -3.39451e-10 -1.17391e-09 -2.15315e-09 -1.7727e-05 -0.000195287 -0.000302472 -0.00235992 
0.000229698 -1.07987e-10 -1.00613e-09 -1.43656e-09 -1.4116e-05 -0.000131521 -0.000187787 1.55749e-17 
0 0 0 0 0 0 0 0 
0.000347029 6.77796e-10 1.31842e-09 -6.17598e-09 -1.5039e-06 -3.65227e-05 -0.000345099 0.0535146 
0.00020405 -7.49534e-11 -9.76339e-10 -1.37089e-09 -9.07835e-06 -0.000118254 -0.000166042 1.44311e-17 
0 0 0 0 0 0 0 0 
0.000670564 -2.85631e-10 -3.30129e-09 -3.1747e-09 -4.17378e-05 -0.000482399 -0.000463902 -4.30904e-16 
0.000172835 -7.87988e-11 -1.54284e-09 -4.39812e-10 -8.47891e-06 -0.000166013 -4.73247e-05 0 
0.000579859 -6.04685e-10 -5.70054e-09 -2.71863e-09 -1.71341e-05 -0.000553533 -0.000171883 0.0341508 
0.000499656 -8.06116e-11 -8.42513e-09 -1.53256e-09 -4.70331e-06 -0.000491567 -8.94177e-05 -1.0862e-18 
0.000223419 -1.15411e-10 -1.4143e-09 -9.49932e-10 -1.51e-05 -0.000185043 -0.000124286 -6.23553e-17 
0.00086754 -3.61668e-10 -5.87295e-09 -3.23438e-09 -4.67293e-05 -0.000758816 -0.000417899 2.4631e-16 
0.000464862 -1.81371e-10 -4.11362e-09 -2.40095e-09 -1.76887e-05 -0.00040119 -0.000234159 0 
0 0 0 0 0 0 0 0 
0.000235817 -7.72301e-11 -2.31147e-09 -9.22192e-10 -7.3146e-06 -0.000218924 -8.73424e-05 4.51384e-17 
0 0 0 0 0 0 0 0 
0 0 0 0 0 0 0 0 
0.000608627 -1.70032e-10 -5.32942e-09 -6.91169e-11 -7.90216e-06 -0.000597835 -0.000113833 -0.0741366 
0.000325536 -2.89366e-09 -5.39892e-09 -5.53576e-10 -2.53171e-06 -0.000319397 -6.28716e-05 0.493574 
0.00111631 -1.25388e-09 -2.63613e-08 -6.73501e-10 -3.07188e-08 -0.00111621 -1.51076e-05 0.0179403 
0 0 0 0 0 0 0 0 
0 0 0 0 0 0 0 0 
0.000124458 -5.28767e-10 -3.15618e-09 7.321e-10 -1.48859e-07 -0.000123972 -1.09947e-05 0.00327819 
0.000282855 0 -2.12142e-09 1.3506e-11 3.51735e-23 -0.00028285 1.80077e-06 0 
0.000434419 -2.5741e-11 -1.212e-08 9.43394e-10 -9.19852e-07 -0.000433108 3.37121e-05 4.39075e-17 
0.000320759 -3.74821e-11 -2.96704e-09 5.30444e-10 -3.98854e-06 -0.000315728 5.64455e-05 -1.26786e-17 
0.00198012 -5.23196e-10 -1.87228e-08 8.14035e-09 -5.07277e-05 -0.00181531 0.000789266 -3.69669e-16 
2.30569e-05 -6.6054e-12 -3.23791e-10 1.25654e-10 -4.38423e-07 -2.14911e-05 8.34011e-06 0 
0 0 0 0 0 0 0 0 
0 0 0 0 0 0 0 0 
0.000818701 -1.84106e-10 -1.3262e-08 3.04338e-09 -1.10764e-05 -0.000797887 0.0001831 -2.75978e-16 
0.000214263 -6.12456e-11 -1.98591e-09 9.57959e-10 -5.94932e-06 -0.000192909 9.3055e-05 0 
0.000305658 -1.01464e-10 -2.88363e-09 1.33467e-09 -9.7552e-06 -0.000277246 0.000128322 2.00468e-17 
0.000152823 7.3511e-10 -1.01778e-09 4.46376e-10 -5.41247e-06 -0.00014251 5.49229e-05 0.0399454 
0 0 0 0 0 0 0 0 
0.00175216 -7.10694e-09 -1.14784e-08 7.33981e-09 -8.18632e-05 -0.00159589 0.000718668 2.40163 
0.000230609 -9.25919e-10 -1.17026e-09 1.60385e-09 -1.35678e-05 -0.000207204 0.000100314 0.0545545 
0.000357311 -3.81769e-09 -1.00246e-08 7.71708e-11 -8.79115e-07 -0.000355395 3.69391e-05 0.158758 
2.21962e-05 -4.20339e-12 -2.58518e-10 9.24189e-11 -3.39798e-07 -2.08983e-05 7.47104e-06 1.20396e-18 
0.0005533 -1.16767e-09 -2.94998e-09 1.72263e-09 -3.12827e-05 -0.000423598 0.00035458 -0.0169503 
0.00500121 -1.11835e-09 -6.70694e-09 1.86772e-08 -0.000281393 -0.00168757 0.00469948 9.59333e-16 
0.000221678 -6.43724e-11 -5.46738e-10 1.72255e-09 -7.89099e-06 -6.70209e-05 0.000211156 -2.33686e-16 
0.00180959 -4.59736e-09 -7.04182e-09 1.63028e-08 -4.50677e-05 -0.000424539 0.00175851 2.04254 
0.000167404 -1.00215e-09 -7.37716e-10 3.20062e-09 -1.15039e-06 -1.5569e-05 0.000166674 0.0168773 
0.000133443 -5.15115e-13 -6.37176e-12 1.00082e-09 -6.86806e-08 -8.49551e-07 0.00013344 0 
0.000396427 -1.01044e-10 -7.07229e-10 1.36271e-09 -2.60341e-05 -0.000182218 0.000351103 1.53491e-17 
0 0 0 0 0 0 0 0 
0.00122364 -4.03439e-10 -3.84858e-09 7.53145e-09 -5.83017e-05 -0.000556165 0.00108838 -5.50979e-16 
0.000895338 -3.26545e-10 -2.61466e-09 6.63984e-09 -4.09276e-05 -0.000327708 0.000832203 2.38932e-16 
0.000368573 -1.18925e-10 -1.09027e-09 2.71452e-09 -1.49716e-05 -0.000137255 0.000341735 0 
0.00185424 -4.36288e-10 -6.90212e-09 1.81463e-08 -4.16581e-05 -0.000659036 0.00173267 2.18429e-15 
0.000308453 -1.83234e-11 -8.98632e-10 3.13132e-09 -6.71153e-06 -9.6491e-05 0.000292895 0.0230944 
0.000895799 -1.70516e-10 -2.51293e-09 9.56751e-09 -1.54392e-05 -0.000227531 0.000866283 0 
0.000185038 4.97412e-10 -1.14092e-09 3.07186e-09 -9.32113e-07 -2.4034e-05 0.000183468 -0.00531224 
0 0 0 0 0 0 0 0 
0.00119019 -3.50314e-10 -2.9505e-09 1.48524e-08 -2.75267e-05 -0.000231842 0.00116706 -1.05793e-15 
0.000105475 -9.69558e-12 -4.32638e-10 2.5738e-09 -3.91828e-07 -1.74842e-05 0.000104015 9.63017e-18 
0.000209436 -5.02293e-11 -1.04223e-09 2.3715e-09 -4.06028e-06 -8.42488e-05 0.0001917 1.44469e-17 
0.000622988 2.01275e-10 9.96578e-10 2.71034e-09 -3.03915e-05 0.00018266 0.000594833 -0.0356476 
0.000943603 -3.63355e-09 4.23481e-09 1.47099e-08 -6.68505e-06 0.000185865 0.000925093 0.415529 
0.000234334 -5.73645e-11 5.23558e-10 2.95135e-09 -4.48384e-06 4.09234e-05 0.00023069 -2.74733e-16 
0.00176911 -9.88821e-10 5.03459e-09 2.1937e-08 -4.09159e-05 0.000344613 0.00173474 -0.0573892 
6.6925e-05 -2.86227e-11 3.45659e-10 5.92226e-10 -2.79109e-06 3.37063e-05 5.77499e-05 -7.26149e-19 
0 0 0 0 0 0 0 0 
0 0 0 0 0 0 0 0 
0 0 0 0 0 0 0 0 
0.000197144 -2.27803e-10 2.64743e-10 3.30409e-09 -2.75424e-06 5.00768e-05 0.000190658 0.0526201 
0.000396292 -1.29785e-10 1.54975e-09 3.88444e-09 -1.22922e-05 0.000146779 0.000367903 1.12846e-17 
6.12601e-05 -1.93522e-11 1.40082e-10 4.83887e-10 -2.35162e-06 1.70223e-05 5.88006e-05 -9.04898e-19 
0.00145285 -6.49177e-10 7.98686e-09 1.25193e-08 -6.34516e-05 0.000780649 0.00122365 -3.72659e-16 
0.000269312 1.50627e-09 3.54068e-10 2.24639e-09 -1.23107e-05 9.8572e-05 0.000250321 0.077541 
0.000738891 -5.73652e-10 2.17471e-09 5.40965e-09 -4.26142e-05 0.000286949 0.000679562 -0.00473106 
0.000302843 -3.24232e-11 1.41412e-09 8.80569e-09 -1.10097e-06 4.80184e-05 0.00029901 6.47328e-17 
0.000902728 -2.18777e-10 2.06089e-09 8.5365e-09 -2.24824e-05 0.000211785 0.000877245 1.8366e-17 
0.000614016 -1.56507e-10 1.09541e-09 2.11067e-09 -4.03243e-05 0.000282233 0.000543815 0 
0.00028732 -1.22833e-08 -2.33447e-09 -8.62256e-08 0 0 -0.00028732 0.0622986 
0 0 0 0 0 0 0 0 
0.000353485 -1.13518e-09 9.37253e-09 7.5656e-10 0 0.000351424 3.81199e-05 -0.00796794 
0.000638661 -5.77592e-09 1.23594e-08 1.16672e-08 0 0.000481788 0.000419248 0.333144 
0.00131432 0 2.95691e-08 3.15275e-08 0 0.000899114 0.000958666 -1.46729e-16 
0.000303813 0 9.77323e-09 2.07688e-09 0 0.000297177 6.31523e-05 0 
0.00100128 -3.85024e-09 4.32734e-09 -3.26554e-08 0 0.000158258 -0.000988691 0.275936 
0.00049324 -3.90966e-10 9.7174e-09 -1.31625e-08 0 0.000342217 -0.000355209 0.00853734 
0.000386268 0 1.246e-08 -2.4736e-09 0 0.000378874 -7.52154e-05 6.34012e-18 
0.000556074 -2.48669e-09 1.17821e-08 -1.06466e-08 0 0.000248235 -0.000497592 0.63016 
0.000352698 -6.16941e-10 8.10894e-09 -4.71871e-09 0 0.000309522 -0.000169093 0.013257 
0.000415274 -2.73105e-10 5.16489e-12 -6.69458e-09 0 -2.65535e-05 -0.000414424 0.0247704 
0 0 0 0 0 0 0 0 
0 0 0 0 0 0 0 0 