ITEM: TIMESTEP
90
ITEM: NUMBER OF SURFS
6916
ITEM: BOX BOUNDS oo rr rr
-0.35 0.35
-0.25 0.25
-0.25 0.25
ITEM: SURFS f_save[1] f_save[2] f_save[3] f_save[4] f_save[5] f_save[6] f_save[7] f_save[8] 
0.0106638 -8.00115e-08 -1.68339e-09 -4.4515e-09 -0.0106638 0 0 7.82284 
0 0 0 0 0 0 0 0 
0 0 0 0 0 0 0 0 
0 0 0 0 0 0 0 0 
0 0 0 0 0 0 0 0 
0 0 0 0 0 0 0 0 
0 0 0 0 0 0 0 0 
0 0 0 0 0 0 0 0 
0.0183818 -4.36567e-08 0 0 -0.0183818 0 0 0 
0 0 0 0 0 0 0 0 
0 0 0 0 0 0 0 0 
0 0 0 0 0 0 0 0 
0.0275031 -6.7039e-08 0 0 -0.0275031 0 0 0 
0 0 0 0 0 0 0 0 
0 0 0 0 0 0 0 0 
0 0 0 0 0 0 0 0 
0 0 0 0 0 0 0 0 
0.0244522 -5.80739e-08 0 0 -0.0244522 0 0 0 
0 0 0 0 0 0 0 0 
0 0 0 0 0 0 0 0 
0 0 0 0 0 0 0 0 
0 0 0 0 0 0 0 0 
0 0 0 0 0 0 0 0 
0 0 0 0 0 0 0 0 
0 0 0 0 0 0 0 0 
0 0 0 0 0 0 0 0 
0 0 0 0 0 0 0 0 
0.0119549 -2.83929e-08 0 0 -0.0119549 0 0 0 
0 0 0 0 0 0 0 0 
0 0 0 0 0 0 0 0 
0.000862371 -4.09626e-08 0 0 -0.000862371 0 0 0 
0.00324707 -2.79248e-07 9.19232e-10 1.60684e-09 -0.00324707 0 0 0.607049 
0.00186696 -8.86808e-08 0 0 -0.00186696 0 0 0 
0 0 0 0 0 0 0 0 
0 0 0 0 0 0 0 0 
0 0 0 0 0 0 0 0 
0.00154243 3.66329e-09 0 0 0.00154243 0 0 0 
0.00446966 5.4474e-09 0 0 0.00446966 0 0 0 
0 0 0 0 0 0 0 0 
0 0 0 0 0 0 0 0 
0 0 0 0 0 0 0 0 
0 0 0 0 0 0 0 0 
0 0 0 0 0 0 0 0 
0 0 0 0 0 0 0 0 
0.00115633 2.74628e-09 0 0 0.00115633 0 0 0 
0 0 0 0 0 0 0 0 
0 0 0 0 0 0 0 0 
0.00144317 3.42752e-09 0 0 0.00144317 0 0 0 
0 0 0 0 0 0 0 0 
0 0 0 0 0 0 0 0 
0 0 0 0 0 0 0 0 
0 0 0 0 0 0 0 0 
0 0 0 0 0 0 0 0 
0 0 0 0 0 0 0 0 
0 0 0 0 0 0 0 0 
0 0 0 0 0 0 0 0 
0.00263141 6.41406e-09 0 0 0.00263141 0 0 0 
0 0 0 0 0 0 0 0 
0 0 0 0 0 0 0 0 
0 0 0 0 0 0 0 0 
0 0 0 0 0 0 0 0 
0 0 0 0 0 0 0 0 
1.16885e-05 -1.84752e-07 2.36159e-07 2.37426e-07 0 8.265e-06 8.265e-06 0.0114125 
9.84995e-06 -1.34644e-07 -8.9332e-08 -9.0364e-08 0 -6.96496e-06 -6.96496e-06 0.0177033 
0.000197165 -2.25519e-08 1.12384e-07 1.09233e-09 0 0.000197165 0 0.0688879 
0.000333215 -2.8982e-08 -1.89932e-07 -1.09145e-08 0 -0.000333215 0 0.134248 
0.000154583 -2.26009e-09 8.81123e-08 2.96071e-09 0 0.000154583 0 -0.000347095 
0.000283193 -3.42444e-08 -1.6142e-07 -1.1335e-08 0 -0.000283193 0 0.0853853 
0.000328683 1.02047e-09 1.87349e-07 -1.981e-11 0 0.000328683 0 -0.00273242 
0.000427568 -6.12962e-09 -1.50286e-08 2.43714e-07 0 0 0.000427568 0.0155097 
0.000156651 -2.89744e-08 2.97632e-09 9.16407e-08 0 0 0.000156651 0.105385 
0.000288167 7.02441e-09 7.32892e-11 -1.68578e-07 0 0 -0.000288167 -0.00344899 
0.00032899 1.66938e-08 7.34616e-10 1.92459e-07 0 0 0.00032899 -0.00767835 
0.000314506 -2.11075e-08 1.79268e-07 7.22648e-09 0 0.000314506 0 0.066701 
0.000148188 1.55019e-09 8.66899e-08 -4.95986e-09 0 0.000148188 0 -0.000938841 
0.000103558 -2.64834e-08 -7.29025e-09 -5.90282e-08 0 0 -0.000103558 0.0842931 
0.000317683 2.07397e-09 1.81079e-07 3.57005e-10 0 0.000317683 0 0.00229948 
0.000256795 -5.52138e-09 -1.46373e-07 -6.40617e-09 0 -0.000256795 0 -0.0024727 
0.000498243 -4.3049e-08 -1.33668e-08 2.83998e-07 0 0 0.000498243 0.14956 
0.000123292 5.05821e-09 1.55354e-10 7.02765e-08 0 0 0.000123292 0.00425943 
0.000161617 -1.68612e-09 1.69626e-09 -9.21218e-08 0 0 -0.000161617 0.00116204 
0.00016104 2.25141e-09 -9.17926e-08 -1.28824e-08 0 -0.00016104 0 0.00209118 
7.97069e-05 1.00518e-09 4.54329e-08 -7.29168e-10 0 7.97069e-05 0 0.00201825 
0.000113396 -2.10567e-10 -3.40878e-09 -6.46355e-08 0 0 -0.000113396 -0.00496143 
0.000242008 2.09777e-09 1.41574e-07 -4.14444e-09 0 0.000242008 0 -0.00488794 
0.000302768 6.43609e-09 -6.40824e-09 1.77119e-07 0 0 0.000302768 -0.000294202 
0.000324307 1.91234e-11 -1.8972e-07 -3.89167e-09 0 -0.000324307 0 0.00501092 
0.000236224 7.0877e-10 4.82251e-09 -1.34648e-07 0 0 -0.000236224 0.00085036 
0.000211334 -2.41124e-09 -1.2363e-07 -4.10523e-10 0 -0.000211334 0 -0.00128347 
8.3631e-05 1.58711e-09 6.23924e-09 4.89241e-08 0 0 8.3631e-05 -0.00670155 
9.49941e-05 4.56368e-10 -1.23129e-09 -5.41466e-08 0 0 -9.49941e-05 -0.00396192 
0.00010064 -2.36852e-08 -5.88742e-08 -5.22008e-10 0 -0.00010064 0 0.0604797 
0.000221468 -6.32846e-10 -1.26237e-07 -1.10988e-08 0 -0.000221468 0 0.00106145 
0.000241541 7.03781e-10 -2.01636e-09 7.06506e-08 0 0 0.000241541 -0.00301789 
0.000165292 1.79281e-09 -1.34937e-09 9.42165e-08 0 0 0.000165292 -0.000864985 
0.000248586 -3.59409e-08 5.08938e-09 -1.41694e-07 0 0 -0.000248586 0.102086 
0.000122684 1.4692e-09 -3.53264e-09 6.99298e-08 0 0 0.000122684 -0.000288037 
0.00017141 -3.04283e-08 -9.77038e-08 2.96151e-09 0 -0.00017141 0 0.103805 
0.000395974 4.28763e-09 1.87995e-09 -2.25705e-07 0 7.76401e-11 -0.000395974 -0.00514379 
6.7946e-05 -5.86959e-10 -3.87292e-08 -3.50658e-10 0 -6.7946e-05 0 -0.0012112 
0.000178033 -2.14867e-08 -1.01479e-07 4.45368e-09 0 -0.000178033 0 0.0720009 
6.81946e-05 2.53856e-09 -5.49938e-10 3.8871e-08 0 0 6.81946e-05 -5.476e-05 
0.00022371 -4.20814e-09 1.27514e-07 8.08042e-09 0 0.00022371 0 0.0369973 
1.53744e-05 0 0 -8.76342e-09 0 0 -1.53744e-05 0 
0.000206851 4.71359e-09 -1.17905e-07 1.92765e-09 0 -0.000206851 0 -0.00536564 
7.88982e-05 -1.3477e-09 1.27252e-09 -4.4972e-08 0 0 -7.88982e-05 -0.00445586 
0.000286735 1.54322e-09 2.04328e-08 1.24967e-09 -5.45478e-07 0.000286734 0 -0.00911356 
0.000328946 -4.0509e-10 5.95279e-09 -2.71005e-10 -2.23103e-05 0.000327849 -1.49256e-05 6.34326e-17 
0 0 0 0 0 0 0 0 
0.00117695 -6.57965e-10 2.11667e-08 -1.1133e-09 -3.65172e-05 0.00117476 -6.17885e-05 -4.2615e-17 
0 0 0 0 0 0 0 0 
0 0 0 0 0 0 0 0 
0.000436416 -3.92358e-10 1.04916e-08 1.74708e-09 -2.30909e-07 0.000436377 5.81271e-06 -0.0465463 
0.000214247 1.28644e-10 3.99789e-09 -1.53091e-09 -8.19897e-06 0.000214048 4.23651e-06 -0.0588754 
0 0 0 0 0 0 0 0 
0.000223656 -2.41724e-10 1.59353e-08 -3.56836e-09 -1.06536e-07 0.000223656 0 -0.0429035 
2.91904e-05 -3.9566e-12 0 2.07981e-09 -5.55311e-08 0 2.91903e-05 -2.02061e-18 
0.000269417 -4.69706e-09 3.37601e-09 4.43486e-09 -1.82728e-05 1.22245e-05 0.000268518 0.0132285 
0 0 0 0 0 0 0 0 
6.63729e-05 6.15127e-10 4.5029e-10 1.19357e-09 -2.05936e-06 3.48452e-06 6.62494e-05 -0.00289279 
0 0 0 0 0 0 0 0 
0 0 0 0 0 0 0 0 
0.000191319 -2.43878e-12 -6.13919e-11 4.60887e-09 -1.01228e-07 -2.54822e-06 0.000191302 1.99193e-18 
0.000265626 -1.87839e-10 -9.70586e-11 4.90385e-09 -1.01652e-05 -5.25249e-06 0.00026538 -6.2329e-17 
0 0 0 0 0 0 0 0 
0.000113026 -3.836e-12 0 8.05307e-09 -5.38386e-08 0 0.000113026 0 
0.000371919 4.15415e-09 -2.65072e-08 3.38141e-09 -7.0753e-07 -0.000371918 0 -0.0201185 
0.000443284 -5.45894e-10 -8.0219e-09 3.65203e-10 -3.0065e-05 -0.000441805 2.01135e-05 1.58582e-17 
0 0 0 0 0 0 0 0 
0.000344663 -1.92682e-10 -6.19857e-09 3.26026e-10 -1.06939e-05 -0.000344022 1.80945e-05 5.32687e-18 
0 0 0 0 0 0 0 0 
0 0 0 0 0 0 0 0 
0.000486912 -6.20677e-12 -1.17297e-08 -1.56244e-10 -2.57627e-07 -0.000486869 -6.48528e-06 4.58143e-17 
0.000253784 -1.79464e-10 -4.68522e-09 -9.27314e-11 -9.71201e-06 -0.000253548 -5.01831e-06 -1.03882e-17 
0 0 0 0 0 0 0 0 
0.00049037 -1.66428e-11 -3.49388e-08 0 -2.33583e-07 -0.000490369 0 1.65017e-17 
0.000472568 1.49986e-09 2.85543e-10 -3.36734e-08 -8.99002e-07 0 -0.000472567 0.000642866 
0 0 0 0 0 0 0 0 
0.000329321 -3.51464e-08 -1.11384e-10 -4.92644e-09 -3.60898e-06 -1.14195e-05 -0.000329103 3.32012 
0.000125689 -5.76735e-10 1.00383e-09 -2.30375e-09 -3.89977e-06 -6.59856e-06 -0.000125455 -0.00174364 
0.000435009 6.56682e-10 1.30672e-09 -7.20036e-09 -7.64913e-06 -4.91929e-06 -0.000434913 -0.0481313 
0 0 0 0 0 0 0 0 
0.000445624 -3.31031e-08 3.18754e-09 -1.0677e-08 -2.35781e-07 5.93536e-06 -0.000445585 2.73867 
0.00104548 -7.39312e-10 3.82012e-10 -1.9301e-08 -4.00091e-05 2.06732e-05 -0.00104451 -5.71349e-17 
0 0 0 0 0 0 0 0 
0.000268949 -9.9693e-10 1.07715e-09 -1.91621e-08 -1.28111e-07 0 -0.000268949 -0.00720263 
0 0 0 0 0 0 0 0 
0 0 0 0 0 0 0 0 
0 0 0 0 0 0 0 0 
0 0 0 0 0 0 0 0 
0 0 0 0 0 0 0 0 
0 0 0 0 0 0 0 0 
0 0 0 0 0 0 0 0 
0 0 0 0 0 0 0 0 
0 0 0 0 0 0 0 0 
0 0 0 0 0 0 0 0 
0 0 0 0 0 0 0 0 
0 0 0 0 0 0 0 0 
0 0 0 0 0 0 0 0 
0 0 0 0 0 0 0 0 
0 0 0 0 0 0 0 0 
0 0 0 0 0 0 0 0 
0.000198446 -8.12056e-10 4.58276e-09 -1.23065e-10 -3.46129e-05 0.000195334 -5.2455e-06 1.6364e-17 
0 0 0 0 0 0 0 0 
0.00123802 -2.02748e-09 9.14337e-09 -7.41776e-10 -0.000267176 0.00120489 -9.77494e-05 0 
0.000185948 -5.97676e-10 3.17723e-09 -2.63623e-10 -3.42625e-05 0.000182138 -1.51125e-05 0 
0.00106801 3.15912e-10 2.09914e-08 -1.51652e-09 -0.000208208 0.00104059 -0.000120347 0.0165113 
0.00108733 -1.55604e-09 7.38076e-09 -2.13858e-09 -0.000257009 0.00104947 -0.000121853 0.0708873 
0 0 0 0 0 0 0 0 
0 0 0 0 0 0 0 0 
0 0 0 0 0 0 0 0 
0.000836798 -2.81377e-09 9.16229e-09 -2.05928e-09 -0.000160597 0.000820289 -3.95578e-05 0.10551 
0.000331205 -9.41816e-10 3.71587e-09 -8.65859e-10 -7.93737e-05 0.000313164 -7.29723e-05 -4.04444e-17 
0.000125916 -4.22241e-10 2.36553e-09 8.95211e-11 -2.21108e-05 0.000123871 4.68779e-06 -5.02598e-18 
0.000465716 -1.40132e-09 6.50446e-09 6.37372e-10 -9.76363e-05 0.000453196 4.44086e-05 8.02479e-17 
0.000176564 5.15957e-10 4.19076e-09 2.62818e-09 -3.11123e-05 0.000173679 6.52592e-06 0.0712667 
0 0 0 0 0 0 0 0 
0 0 0 0 0 0 0 0 
0.000175071 -5.04382e-10 2.12986e-09 3.5753e-10 -3.98159e-05 0.000168131 2.82234e-05 -1.51532e-17 
0.00148415 -4.16133e-09 1.94871e-08 2.41203e-09 -0.000307694 0.0014409 0.000178349 -1.88066e-16 
0 0 0 0 0 0 0 0 
0 0 0 0 0 0 0 0 
0.00089247 -2.81068e-09 1.63056e-08 -4.90646e-09 -0.000174624 0.000865858 0.000127664 0.0743972 
0 0 0 0 0 0 0 0 
0.00068338 -5.9298e-09 1.7828e-09 7.16264e-09 -0.000123092 6.2518e-05 0.000669289 -0.0901057 
0.00054723 -9.2562e-10 4.57916e-10 3.76175e-09 -0.000129848 6.42374e-05 0.000527706 0 
0.000560067 -1.78827e-09 6.44925e-10 9.6275e-09 -0.00010206 3.6807e-05 0.000549458 3.50573e-16 
0.00028901 -1.05284e-09 3.94033e-10 5.38288e-09 -5.53339e-05 2.0709e-05 0.000282906 -5.04435e-18 
0.00194066 -4.40727e-09 1.23198e-09 2.17301e-08 -0.000385154 0.000107664 0.00189901 -6.71016e-17 
0 0 0 0 0 0 0 0 
0.00116488 -2.84814e-09 2.85778e-09 1.22997e-08 -0.000256303 0.00025717 0.00110685 1.72743e-16 
0 0 0 0 0 0 0 0 
0.000113547 -3.8835e-10 8.07268e-11 2.13314e-09 -2.03234e-05 4.22466e-06 0.000111633 -1.88357e-18 
0.00177187 -4.23392e-09 4.89276e-09 1.66432e-08 -0.000420121 0.000485496 0.00165146 -1.23809e-15 
0.000901886 -1.76578e-09 8.23928e-10 6.84856e-09 -0.00019505 0.000206755 0.000855925 -0.161325 
0.000410901 -1.95821e-09 -1.07674e-09 8.33624e-09 -7.71296e-05 -2.45409e-05 0.00040285 -0.0424859 
0.00153762 -2.60083e-09 -1.28666e-09 1.05699e-08 -0.000364851 -0.000180496 0.00148276 4.3422e-16 
0.00145954 -2.67136e-09 -3.20279e-09 1.04299e-08 -0.000347104 -0.000416155 0.00135521 1.24711e-17 
0.000646801 -9.95302e-10 -3.50052e-10 4.31485e-09 -0.000144927 -5.09715e-05 0.000628291 1.39757e-17 
0.000696896 -1.82627e-09 -1.86114e-09 7.23772e-09 -0.000165437 -0.000168595 0.000655645 -8.6945e-17 
0.000110576 -2.57216e-10 -2.45912e-10 1.18443e-09 -2.29976e-05 -2.19869e-05 0.000105899 8.58147e-18 
0.000817339 -1.76207e-09 -7.35583e-10 8.66876e-09 -0.000162248 -6.77313e-05 0.000798205 0 
0.000113857 -2.8674e-09 1.81025e-09 1.64044e-09 -2.20445e-05 -1.09944e-05 0.00011116 -0.0229276 
0.00039747 -1.58148e-08 -1.19216e-09 2.52922e-08 -6.90103e-05 -4.25746e-06 0.00039141 0.345896 
0.00029363 -1.28992e-09 -3.26005e-09 6.75926e-09 -5.20752e-05 -2.09244e-05 0.000288216 -0.00924203 
0.00024222 -1.22503e-09 -5.70924e-09 -5.69812e-09 -4.22478e-05 -0.000238421 6.40255e-06 -0.0168285 
0.000501787 -1.50721e-09 -5.95861e-09 1.20265e-09 -0.00012076 -0.000477412 9.6358e-05 3.076e-17 
0 0 0 0 0 0 0 0 
0.000535372 -1.7208e-09 -9.14772e-09 7.59011e-10 -9.86467e-05 -0.000524404 4.35112e-05 -3.85149e-17 
0.000664691 -2.12053e-10 -1.29476e-08 1.24501e-09 -0.000129581 -0.000647621 7.48992e-05 0.00364005 
0 0 0 0 0 0 0 0 
0 0 0 0 0 0 0 0 
0 0 0 0 0 0 0 0 
0.00131102 -2.01001e-08 -1.11364e-08 9.92822e-10 -0.000305437 -0.00124513 0.000274125 2.63096 
0.000242836 -5.35716e-10 -2.7363e-09 1.31956e-10 -4.66047e-05 -0.000238045 1.14795e-05 1.66995e-17 
0.00134963 -3.8378e-09 -1.51418e-08 3.52829e-09 -0.00032344 -0.00127611 0.000297354 0 
0 0 0 0 0 0 0 0 
0 0 0 0 0 0 0 0 
0.000533261 -1.48016e-10 -1.25594e-08 -2.39888e-09 -9.39658e-05 -0.000524547 -1.97097e-05 0.045356 
0.00107292 -2.51067e-09 -9.55681e-09 -1.92889e-09 -0.000267567 -0.00101849 -0.000205565 0 
0 0 0 0 0 0 0 0 
0.000693854 -1.999e-09 -8.44121e-09 -1.41699e-09 -0.000157801 -0.000666348 -0.000111857 1.51532e-17 
0 0 0 0 0 0 0 0 
0.000314286 -6.59637e-10 -3.24403e-09 -2.77147e-10 -6.24066e-05 -0.00030691 -2.62202e-05 0 
0 0 0 0 0 0 0 0 
0 0 0 0 0 0 0 0 
0.000577908 -1.39073e-09 -6.50139e-09 -1.09664e-09 -0.000119275 -0.000557589 -9.4053e-05 3.29265e-17 
0 0 0 0 0 0 0 0 
0 0 0 0 0 0 0 0 
0 0 0 0 0 0 0 0 
0 0 0 0 0 0 0 0 
0.00106301 -3.83136e-08 -4.35236e-09 -4.41319e-09 -0.00021097 -5.89732e-05 -0.00104019 4.64766 
0.000597423 -3.71956e-09 -3.95495e-09 -7.86261e-09 -0.000123993 -4.69166e-05 -0.000582527 0.0872179 
0.000262927 1.82115e-10 -1.72538e-09 -2.71621e-09 -5.78506e-05 -5.80464e-05 -0.000249829 0.0149038 
0 0 0 0 0 0 0 0 
0.000937895 -3.20776e-09 -6.66802e-10 -1.76197e-08 -0.000167871 -3.48956e-05 -0.000922089 -6.52972e-17 
0 0 0 0 0 0 0 0 
0 0 0 0 0 0 0 0 
0 0 0 0 0 0 0 0 
0.000912989 -1.54429e-09 7.63978e-10 -6.27603e-09 -0.000216636 0.000107173 -0.000880415 0 
0.000723578 -1.32435e-09 1.58781e-09 -5.17069e-09 -0.000172079 0.000206312 -0.000671855 -3.11778e-17 
0 0 0 0 0 0 0 0 
0 0 0 0 0 0 0 0 
0 0 0 0 0 0 0 0 
0.000428948 3.90759e-10 1.12948e-09 -4.75377e-09 -8.51495e-05 3.55461e-05 -0.000418906 -0.0450643 
0.00207683 -2.13583e-09 4.91324e-09 -3.612e-08 -0.000402109 0.000200547 -0.00202764 -0.0567235 
0.00021208 -6.56001e-10 1.90542e-09 -1.48536e-08 -3.68221e-05 2.27167e-06 -0.000208847 0.0189203 
0.000472892 -2.02671e-09 8.14353e-10 -1.1217e-08 -8.38674e-05 3.36989e-05 -0.000464174 4.76608e-17 
0.00119717 -4.67927e-10 5.06364e-09 -7.85731e-11 -6.73588e-05 0.00112494 0.000403964 -0.0314994 
0.00241966 -5.43829e-10 1.0644e-08 3.26853e-09 -0.000118039 0.0023103 0.000709443 1.77077e-16 
0 0 0 0 0 0 0 0 
0 0 0 0 0 0 0 0 
0.000410654 -1.42273e-11 1.1457e-08 8.91784e-10 -5.08412e-07 0.000409415 3.18678e-05 1.71491e-17 
0 0 0 0 0 0 0 0 
0.00047782 -1.96023e-10 3.48101e-09 1.46988e-09 -2.47545e-05 0.000439595 0.000185622 7.27239e-17 
0.00869067 -1.9262e-09 3.86324e-08 2.23825e-08 -0.000374584 0.00751277 0.00435267 -2.38911e-15 
0.000722887 -2.95626e-10 5.36093e-09 2.11105e-09 -3.70423e-05 0.000671732 0.000264517 0 
0 0 0 0 0 0 0 0 
0.000160978 -4.45834e-11 1.57539e-09 5.99215e-10 -4.25654e-06 0.000150409 5.72093e-05 -2.29088e-18 
0 0 0 0 0 0 0 0 
0 0 0 0 0 0 0 0 
0 0 0 0 0 0 0 0 
0.0001006 -9.04932e-12 2.45777e-09 3.94546e-10 -3.65718e-07 9.9328e-05 1.59451e-05 -2.90917e-18 
0.000353306 -1.2978e-10 2.37365e-09 1.6905e-09 -1.57189e-05 0.000287497 0.000204754 8.71876e-18 
0 0 0 0 0 0 0 0 
0.000611367 -1.15134e-10 3.03147e-09 1.16833e-09 -2.16525e-05 0.000570108 0.00021972 -9.02511e-18 
0 0 0 0 0 0 0 0 
0 0 0 0 0 0 0 0 
0.000876894 -2.33803e-10 9.45243e-09 -2.24165e-09 -2.10982e-05 0.000852982 -0.000202286 -1.73223e-17 
0.000963988 -2.13579e-10 1.04939e-08 -2.24389e-09 -1.91823e-05 0.000942492 -0.000201532 6.89621e-17 
0 0 0 0 0 0 0 0 
0.0132297 -6.78913e-09 8.73506e-08 -5.17271e-08 -0.000882785 0.0113581 -0.00672603 -4.79236e-15 
0.000834007 -4.69512e-11 1.38449e-08 -1.83921e-09 -2.80367e-06 0.00082674 -0.000109827 -1.71941e-16 
0.000641698 -9.16119e-11 5.14021e-09 -1.35007e-09 -1.10599e-05 0.000620556 -0.000162989 -2.31744e-17 
0.000108906 -1.98395e-09 7.91111e-10 -1.05386e-09 -2.85317e-06 0.000102308 -3.72196e-05 -0.018781 
0.00278556 1.03375e-09 2.47517e-08 -1.43726e-08 -0.000105994 0.00240402 -0.00140313 0.0379822 
0.000407682 -1.82165e-10 3.51302e-09 -2.24118e-09 -1.78051e-05 0.000343368 -0.000219057 -1.87624e-17 
0 0 0 0 0 0 0 0 
0.00432241 -8.76943e-10 1.65546e-08 -5.6425e-09 -0.000216455 0.00408616 -0.00139273 -1.51619e-15 
0.000911178 -2.0899e-10 3.47596e-09 -1.26737e-09 -5.13877e-05 0.000854689 -0.000311628 -2.36e-17 
0.000718269 2.9793e-09 1.39452e-08 -1.79055e-09 -1.96255e-06 0.000716381 -5.2009e-05 -0.0425957 
0 0 0 0 0 0 0 0 
0.014605 -3.72268e-09 5.02043e-08 -2.60554e-08 -0.000959152 0.0129352 -0.00671319 -6.33066e-15 
0 0 0 0 0 0 0 0 
0.0103433 -5.21073e-10 3.03601e-09 -1.01699e-08 -0.0005072 0.00295518 -0.00989918 5.60544e-16 
0.00127071 -3.48138e-10 4.06992e-09 -1.31068e-08 -3.22233e-05 0.000376709 -0.00121316 -1.13712e-15 
0.000247929 1.67178e-09 -3.09537e-09 -5.28326e-09 -3.03371e-06 3.32213e-05 -0.000245675 -0.0538935 
0.00227839 -1.19241e-09 1.12452e-08 -1.31817e-08 -0.000156428 0.00147521 -0.00172926 1.61167e-15 
0.00420644 -9.71873e-10 6.54427e-09 -1.54984e-08 -0.000242598 0.00163357 -0.00386868 1.79687e-16 
0 0 0 0 0 0 0 0 
0 0 0 0 0 0 0 0 
0.00041681 1.6942e-09 -9.43956e-11 -3.69784e-09 -1.70439e-05 0.000160431 -0.00038432 0.11022 
0 0 0 0 0 0 0 0 
0.00251975 -2.2147e-09 -5.60965e-09 -2.99644e-08 -5.30051e-05 0.000683436 -0.00242472 4.13128 
0 0 0 0 0 0 0 0 
0.000343287 -6.0792e-11 1.27611e-09 -5.56085e-09 -3.65758e-06 7.67778e-05 -0.000334571 0 
0 0 0 0 0 0 0 0 
0 0 0 0 0 0 0 0 
0.000467971 -3.5135e-09 3.18964e-09 -6.83461e-09 -7.22397e-06 0.000143644 -0.000445321 0.00315067 
0 0 0 0 0 0 0 0 
0.000169026 4.4049e-13 -4.09838e-12 -9.84034e-10 7.56615e-08 -7.03965e-07 -0.000169024 -3.29721e-17 
0.000273715 -9.59402e-11 -6.51865e-10 -2.4764e-09 -1.02477e-05 -6.96278e-05 -0.000264512 1.02519e-17 
0.000158009 -1.92433e-11 -3.5398e-10 -2.70217e-09 -1.11569e-06 -2.0523e-05 -0.000156666 5.56469e-18 
0.000218598 -4.90723e-11 -5.86198e-10 -2.31081e-09 -4.49867e-06 -5.37393e-05 -0.000211842 -1.75977e-17 
0.000617912 -1.66881e-10 -1.81977e-09 -6.45621e-09 -1.53681e-05 -0.000167583 -0.000594555 3.53551e-17 
0.00053867 -1.16535e-10 -1.12804e-09 -2.59256e-09 -2.21836e-05 -0.000214734 -0.000493521 0 
0.00049252 -2.5442e-10 -2.09409e-09 -3.11778e-09 -3.32876e-05 -0.000273985 -0.000407921 0 
0 0 0 0 0 0 0 0 
0.000923091 -2.03485e-10 -2.83133e-09 -1.5565e-08 -1.1872e-05 -0.000165189 -0.000908113 -1.56793e-16 
0.000874801 -2.46592e-10 -3.54147e-09 -8.41317e-09 -2.36236e-05 -0.000339274 -0.000805985 0 
0 0 0 0 0 0 0 0 
0.000931591 -2.31073e-09 -3.25498e-09 -6.54762e-09 -3.8094e-05 -0.000358573 -0.000858974 -0.337647 
0.000292736 -8.02296e-10 -5.71417e-10 -1.96426e-09 -1.43959e-05 -0.000158591 -0.000245635 -0.00760418 
0 0 0 0 0 0 0 0 
0 0 0 0 0 0 0 0 
0 0 0 0 0 0 0 0 
0 0 0 0 0 0 0 0 
0 0 0 0 0 0 0 0 
0.000310024 -1.32057e-10 -1.5263e-09 -1.46777e-09 -1.92967e-05 -0.000223029 -0.000214477 -4.20748e-17 
0 0 0 0 0 0 0 0 
0 0 0 0 0 0 0 0 
0.000370535 -5.97799e-11 -6.24791e-09 -1.13651e-09 -3.48788e-06 -0.000364536 -6.63103e-05 -1.11999e-17 
0 0 0 0 0 0 0 0 
0 0 0 0 0 0 0 0 
0 0 0 0 0 0 0 0 
0 0 0 0 0 0 0 0 
0 0 0 0 0 0 0 0 
0 0 0 0 0 0 0 0 
0 0 0 0 0 0 0 0 
0 0 0 0 0 0 0 0 
0.00104895 -9.32403e-09 -1.73965e-08 -1.78374e-09 -8.15773e-06 -0.00102917 -0.000202586 1.59041 
0.00342829 -4.04016e-09 -8.09571e-08 -2.11623e-09 -9.43398e-08 -0.00342797 -4.63966e-05 0.0578076 
0 0 0 0 0 0 0 0 
0 0 0 0 0 0 0 0 
0.000174999 -2.18985e-09 -4.45275e-09 1.21677e-09 -2.09308e-07 -0.000174315 -1.54596e-05 0.0645674 
0 0 0 0 0 0 0 0 
0.000425579 -2.52172e-11 -1.18734e-08 9.24196e-10 -9.01133e-07 -0.000424295 3.30261e-05 4.63025e-17 
0.00103356 -1.20776e-10 -9.56046e-09 1.70921e-09 -1.2852e-05 -0.00101735 0.00018188 -4.08534e-17 
0 0 0 0 0 0 0 0 
7.42943e-05 -2.12841e-11 -1.04333e-09 4.04886e-10 -1.4127e-06 -6.92492e-05 2.68737e-05 0 
0 0 0 0 0 0 0 0 
0 0 0 0 0 0 0 0 
0 0 0 0 0 0 0 0 
0.000315635 -9.02222e-11 -2.92549e-09 1.41119e-09 -8.76408e-06 -0.000284178 0.000137081 0 
0 0 0 0 0 0 0 0 
0.000492429 2.36869e-09 -3.27952e-09 1.43832e-09 -1.74402e-05 -0.000459197 0.000176974 0.128713 
0 0 0 0 0 0 0 0 
0.00495625 -2.26464e-08 -3.204e-08 2.14232e-08 -0.000231563 -0.00451423 0.00203286 7.73859 
0 0 0 0 0 0 0 0 
0.000271444 -1.22409e-08 -7.83699e-09 -2.29414e-09 -6.67851e-07 -0.000269989 2.80621e-05 0.511552 
7.15211e-05 -1.35443e-11 -8.33001e-10 2.97794e-10 -1.0949e-06 -6.7339e-05 2.40734e-05 3.87943e-18 
0 0 0 0 0 0 0 0 
0 0 0 0 0 0 0 0 
0 0 0 0 0 0 0 0 
0.00527553 -1.46791e-08 -2.14225e-08 4.72795e-08 -0.000131387 -0.00123767 0.00512661 6.58151 
0 0 0 0 0 0 0 0 
0 0 0 0 0 0 0 0 
0 0 0 0 0 0 0 0 
0 0 0 0 0 0 0 0 
0 0 0 0 0 0 0 0 
0.00288498 -1.0522e-09 -8.42501e-09 2.1395e-08 -0.000131878 -0.00105595 0.00268154 7.69892e-16 
0 0 0 0 0 0 0 0 
0.00597476 -1.40582e-09 -2.22402e-08 5.84715e-08 -0.000134232 -0.00212356 0.00558303 7.03826e-15 
0.000529542 -1.21585e-10 -1.74802e-09 5.30606e-09 -1.15221e-05 -0.000165653 0.000502833 -2.91058e-16 
0 0 0 0 0 0 0 0 
0 0 0 0 0 0 0 0 
0 0 0 0 0 0 0 0 
0 0 0 0 0 0 0 0 
0 0 0 0 0 0 0 0 
0 0 0 0 0 0 0 0 
0 0 0 0 0 0 0 0 
0.000361306 1.02107e-09 4.2425e-09 5.12326e-09 -2.55971e-06 7.11677e-05 0.000354218 -0.0279224 
0 0 0 0 0 0 0 0 
0.000428935 -1.2625e-10 1.06334e-09 5.35272e-09 -9.92038e-06 8.35542e-05 0.000420602 0 
0.000215647 -9.22286e-11 1.11379e-09 1.90828e-09 -8.99351e-06 0.000108609 0.000186083 -2.33981e-18 
0 0 0 0 0 0 0 0 
0 0 0 0 0 0 0 0 
0 0 0 0 0 0 0 0 
0.000340228 -2.4216e-09 9.58705e-11 5.76766e-09 -4.75322e-06 8.64216e-05 0.000329034 -0.00251796 
0.000557365 -1.82537e-10 2.17964e-09 5.46327e-09 -1.72884e-05 0.000206438 0.000517436 1.81808e-17 
0 0 0 0 0 0 0 0 
0.00212591 -9.4992e-10 1.16869e-08 1.83191e-08 -9.28467e-05 0.0011423 0.00179054 0 
0.00054904 4.96977e-09 2.10068e-10 4.8746e-09 -2.50976e-05 0.000200957 0.000510325 0.249854 
0.00171713 -1.54521e-09 4.96558e-09 1.25956e-08 -9.90322e-05 0.000666849 0.00157925 -0.0152445 
0.000379703 -4.0652e-11 1.77302e-09 1.10405e-08 -1.3804e-06 6.02053e-05 0.000374897 2.08583e-16 
0.000455343 -1.10353e-10 1.03953e-09 4.30588e-09 -1.13403e-05 0.000106826 0.000442489 0 
0.0019785 -5.04302e-10 3.52965e-09 6.80104e-09 -0.000129934 0.000909417 0.00175229 0 
0.000249065 8.89314e-10 3.9222e-09 -7.47451e-08 0 0 -0.000249065 0.00928383 
0 0 0 0 0 0 0 0 
0.000461451 -3.6578e-09 1.22886e-08 4.94867e-10 0 0.00045876 4.9763e-05 -0.0256745 
0.000908503 9.76747e-10 1.71992e-08 1.7036e-08 0 0.000685349 0.000596384 0.00309937 
0.00193121 0 4.34476e-08 4.63253e-08 0 0.00132112 0.00140863 -3.79401e-16 
0.000865858 0 2.78534e-08 5.91906e-09 0 0.000846945 0.000179982 0 
0.00199312 0 1.03602e-08 -6.47235e-08 0 0.000315024 -0.00196806 5.60346e-16 
0.00111728 0 2.54933e-08 -2.64611e-08 0 0.000775182 -0.00080461 4.3777e-18 
0.000360126 0 1.16167e-08 -2.30619e-09 0 0.000353232 -7.01249e-05 0 
0.00155621 -1.30553e-08 3.02796e-08 -3.11387e-08 0 0.000694702 -0.00139254 2.11527 
0.000431247 0 1.00634e-08 -5.49767e-09 0 0.000378454 -0.000206751 0 
0.000333858 -8.80005e-10 1.04965e-09 -5.44907e-09 0 -2.13476e-05 -0.000333175 0.0798157 
0 0 0 0 0 0 0 0 
0 0 0 0 0 0 0 0 
0.000148063 0 -3.21628e-09 -2.27078e-09 0 -0.000120955 -8.53973e-05 0 
0.000421086 0 -9.4734e-09 -1.01009e-08 0 -0.00028806 -0.000307139 -1.75108e-17 
0.000593385 -1.81343e-10 -1.9021e-08 -4.37334e-09 0 -0.000580424 -0.000123344 0.00383178 
0.00121213 0 -6.30063e-09 3.93622e-08 0 -0.000191585 0.0011969 4.20259e-16 
0.00183314 0 -4.18275e-08 4.34154e-08 0 -0.00127186 0.00132014 -3.73564e-16 
0.000892463 -3.08207e-09 -2.93761e-08 2.75531e-09 0 -0.00087538 0.000173783 -0.00399758 
0.000540214 -2.14813e-08 -1.0098e-09 1.49751e-08 0 -0.000191014 0.000505317 1.37732 
0.000382732 0 -8.39186e-09 5.75773e-09 0 -0.000315592 0.000216531 -1.4438e-17 
0 0 0 0 0 0 0 0 
0 0 0 0 0 0 0 0 
0.00157244 -1.78967e-08 1.65942e-08 -2.62293e-08 -0.000785465 0.000728302 -0.00115117 0 
0.00114716 -4.01594e-08 6.26576e-09 4.26416e-09 -0.000573026 0.000972078 0.000206574 3.08607 
4.61316e-05 -5.25044e-10 1.31844e-10 9.00976e-10 -2.30436e-05 5.78647e-06 3.95428e-05 1.05311e-18 
0.001713 -1.66566e-08 -2.96418e-08 1.96829e-08 -0.000855674 -0.00130231 0.000711456 0.0285504 
0.000496358 -4.49676e-09 -7.4115e-09 -7.42012e-09 -0.00024794 -0.000324377 -0.00028227 0.0384612 
0 0 0 0 0 0 0 0 
0 0 0 0 0 0 0 0 
0 0 0 0 0 0 0 0 
0 0 0 0 0 0 0 0 
0 0 0 0 0 0 0 0 
0 0 0 0 0 0 0 0 
0 0 0 0 0 0 0 0 
0 0 0 0 0 0 0 0 
0 0 0 0 0 0 0 0 
0 0 0 0 0 0 0 0 
0 0 0 0 0 0 0 0 
0 0 0 0 0 0 0 0 
0 0 0 0 0 0 0 0 
0 0 0 0 0 0 0 0 
0 0 0 0 0 0 0 0 
0 0 0 0 0 0 0 0 
0 0 0 0 0 0 0 0 
0 0 0 0 0 0 0 0 
0 0 0 0 0 0 0 0 
0.0492059 7.90917e-09 4.89202e-08 2.13831e-08 0.00721075 0.0446002 0.0194948 -1.12005e-14 
0 0 0 0 0 0 0 0 
0 0 0 0 0 0 0 0 
0 0 0 0 0 0 0 0 
0 0 0 0 0 0 0 0 
0.00102953 1.65484e-10 1.09266e-09 2.32199e-10 0.000150871 0.000996175 0.000211694 8.75038e-17 
0 0 0 0 0 0 0 0 
0 0 0 0 0 0 0 0 
0 0 0 0 0 0 0 0 
0 0 0 0 0 0 0 0 
0 0 0 0 0 0 0 0 
0 0 0 0 0 0 0 0 
0 0 0 0 0 0 0 0 
0 0 0 0 0 0 0 0 
0 0 0 0 0 0 0 0 
0 0 0 0 0 0 0 0 
0 0 0 0 0 0 0 0 
0 0 0 0 0 0 0 0 
0 0 0 0 0 0 0 0 
0 0 0 0 0 0 0 0 
0 0 0 0 0 0 0 0 
0 0 0 0 0 0 0 0 
0 0 0 0 0 0 0 0 
0 0 0 0 0 0 0 0 
0 0 0 0 0 0 0 0 
0 0 0 0 0 0 0 0 
0 0 0 0 0 0 0 0 
0 0 0 0 0 0 0 0 
0 0 0 0 0 0 0 0 
0 0 0 0 0 0 0 0 
0 0 0 0 0 0 0 0 
0 0 0 0 0 0 0 0 
0 0 0 0 0 0 0 0 
0 0 0 0 0 0 0 0 
0 0 0 0 0 0 0 0 
0 0 0 0 0 0 0 0 
0 0 0 0 0 0 0 0 
0 0 0 0 0 0 0 0 
0 0 0 0 0 0 0 0 
0 0 0 0 0 0 0 0 
0 0 0 0 0 0 0 0 
0 0 0 0 0 0 0 0 
0 0 0 0 0 0 0 0 
0 0 0 0 0 0 0 0 
0 0 0 0 0 0 0 0 
0 0 0 0 0 0 0 0 
0 0 0 0 0 0 0 0 
0 0 0 0 0 0 0 0 
0 0 0 0 0 0 0 0 
0 0 0 0 0 0 0 0 
0 0 0 0 0 0 0 0 
0 0 0 0 0 0 0 0 
0.00238377 9.32325e-10 -2.53908e-09 -1.81063e-09 0.00101813 -0.00031209 -0.00213269 -0.28999 
0 0 0 0 0 0 0 0 
0 0 0 0 0 0 0 0 
0 0 0 0 0 0 0 0 
0 0 0 0 0 0 0 0 
0 0 0 0 0 0 0 0 
0 0 0 0 0 0 0 0 
0 0 0 0 0 0 0 0 
0 0 0 0 0 0 0 0 
0 0 0 0 0 0 0 0 
0 0 0 0 0 0 0 0 
0 0 0 0 0 0 0 0 
0 0 0 0 0 0 0 0 
0 0 0 0 0 0 0 0 
0 0 0 0 0 0 0 0 
0 0 0 0 0 0 0 0 
0 0 0 0 0 0 0 0 
0 0 0 0 0 0 0 0 
0 0 0 0 0 0 0 0 
0 0 0 0 0 0 0 0 
0 0 0 0 0 0 0 0 
0 0 0 0 0 0 0 0 
0 0 0 0 0 0 0 0 
0 0 0 0 0 0 0 0 
0 0 0 0 0 0 0 0 
0 0 0 0 0 0 0 0 
0 0 0 0 0 0 0 0 
0 0 0 0 0 0 0 0 
0 0 0 0 0 0 0 0 
0 0 0 0 0 0 0 0 
0 0 0 0 0 0 0 0 
0 0 0 0 0 0 0 0 
0 0 0 0 0 0 0 0 
0 0 0 0 0 0 0 0 
0 0 0 0 0 0 0 0 
0 0 0 0 0 0 0 0 
0 0 0 0 0 0 0 0 
0 0 0 0 0 0 0 0 
0 0 0 0 0 0 0 0 
0 0 0 0 0 0 0 0 
0 0 0 0 0 0 0 0 
0 0 0 0 0 0 0 0 
0 0 0 0 0 0 0 0 
0 0 0 0 0 0 0 0 
0 0 0 0 0 0 0 0 
0 0 0 0 0 0 0 0 
0 0 0 0 0 0 0 0 
0 0 0 0 0 0 0 0 
0 0 0 0 0 0 0 0 
0 0 0 0 0 0 0 0 
0 0 0 0 0 0 0 0 
0 0 0 0 0 0 0 0 
0 0 0 0 0 0 0 0 
0 0 0 0 0 0 0 0 
0 0 0 0 0 0 0 0 
0 0 0 0 0 0 0 0 
0 0 0 0 0 0 0 0 
0 0 0 0 0 0 0 0 
0 0 0 0 0 0 0 0 
0 0 0 0 0 0 0 0 
0 0 0 0 0 0 0 0 
0 0 0 0 0 0 0 0 
0 0 0 0 0 0 0 0 
0 0 0 0 0 0 0 0 
0 0 0 0 0 0 0 0 
0 0 0 0 0 0 0 0 
0 0 0 0 0 0 0 0 
0 0 0 0 0 0 0 0 
0 0 0 0 0 0 0 0 
0 0 0 0 0 0 0 0 
0 0 0 0 0 0 0 0 
0 0 0 0 0 0 0 0 
0 0 0 0 0 0 0 0 
0 0 0 0 0 0 0 0 
0 0 0 0 0 0 0 0 
0 0 0 0 0 0 0 0 
0 0 0 0 0 0 0 0 
0 0 0 0 0 0 0 0 
0 0 0 0 0 0 0 0 
0 0 0 0 0 0 0 0 
0 0 0 0 0 0 0 0 
0 0 0 0 0 0 0 0 
0 0 0 0 0 0 0 0 
0 0 0 0 0 0 0 0 
0 0 0 0 0 0 0 0 
0 0 0 0 0 0 0 0 
0 0 0 0 0 0 0 0 
0 0 0 0 0 0 0 0 
0 0 0 0 0 0 0 0 
0.000875699 -1.01187e-08 -1.9648e-09 2.628e-07 0 0 0.000875699 0.0601899 
0 0 0 0 0 0 0 0 
0 0 0 0 0 0 0 0 
0 0 0 0 0 0 0 0 
0 0 0 0 0 0 0 0 
0 0 0 0 0 0 0 0 
0 0 0 0 0 0 0 0 
0 0 0 0 0 0 0 0 
0 0 0 0 0 0 0 0 
0 0 0 0 0 0 0 0 
0 0 0 0 0 0 0 0 
0 0 0 0 0 0 0 0 
0.0155673 -3.79454e-08 3.51765e-11 8.11514e-10 -0.0155673 0 0 25.0035 
0 0 0 0 0 0 0 0 
0 0 0 0 0 0 0 0 
0 0 0 0 0 0 0 0 
0.0377504 -8.96578e-08 0 0 -0.0377504 0 0 0 
0 0 0 0 0 0 0 0 
0 0 0 0 0 0 0 0 
0.00549577 -1.30525e-08 8.8647e-10 -5.90615e-10 -0.00549577 0 0 7.62891 
0 0 0 0 0 0 0 0 
0 0 0 0 0 0 0 0 
0 0 0 0 0 0 0 0 
0 0 0 0 0 0 0 0 
0.0302386 -7.18168e-08 0 0 -0.0302386 0 0 0 
0 0 0 0 0 0 0 0 
0 0 0 0 0 0 0 0 
0.0171033 -4.06204e-08 0 0 -0.0171033 0 0 0 
0.0169615 -4.02835e-08 0 0 -0.0169615 0 0 0 
0.00680379 -3.2318e-07 0 0 -0.00680379 0 0 0 
0.000667644 -3.25476e-08 -5.54868e-09 2.32159e-09 -0.000667644 0 0 1.09302 
0.00834052 -2.08513e-08 0 0 -0.00834052 0 0 0 
0 0 0 0 0 0 0 0 
0 0 0 0 0 0 0 0 
0.00280634 -1.33301e-07 3.2933e-10 7.61721e-10 -0.00280634 0 0 0.492665 
0 0 0 0 0 0 0 0 
0 0 0 0 0 0 0 0 
0 0 0 0 0 0 0 0 
0 0 0 0 0 0 0 0 
0 0 0 0 0 0 0 0 
0 0 0 0 0 0 0 0 
0 0 0 0 0 0 0 0 
0 0 0 0 0 0 0 0 
0 0 0 0 0 0 0 0 
0 0 0 0 0 0 0 0 
0 0 0 0 0 0 0 0 
0 0 0 0 0 0 0 0 
0 0 0 0 0 0 0 0 
0 0 0 0 0 0 0 0 
0 0 0 0 0 0 0 0 
0 0 0 0 0 0 0 0 
0 0 0 0 0 0 0 0 
0.00108362 2.57359e-09 -1.41222e-09 -1.01262e-10 0.00108362 0 0 -0.135523 
0 0 0 0 0 0 0 0 
0 0 0 0 0 0 0 0 
0 0 0 0 0 0 0 0 
0 0 0 0 0 0 0 0 
0 0 0 0 0 0 0 0 
0 0 0 0 0 0 0 0 
0 0 0 0 0 0 0 0 
0 0 0 0 0 0 0 0 
0 0 0 0 0 0 0 0 
0.000204889 3.75104e-09 -1.1986e-07 -2.50886e-08 0 -0.000204889 0 -0.00185114 
1.3525e-05 -1.5355e-07 1.24846e-07 1.21894e-07 -1.97445e-13 9.56359e-06 9.56359e-06 0.0207939 
1.22501e-05 -2.59395e-07 -2.44745e-07 -2.51595e-07 -8.05218e-14 -8.66213e-06 -8.66213e-06 0.0163905 
0.000122675 -3.23511e-10 9.16798e-10 -6.99249e-08 0 0 -0.000122675 -0.000670447 
3.01911e-05 0 0 1.72089e-08 0 0 3.01911e-05 4.04124e-18 
0.00010312 5.38338e-09 3.11322e-09 -5.87782e-08 0 0 -0.00010312 0.00088469 
0.000178193 3.65496e-09 -6.71144e-10 1.0157e-07 0 0 0.000178193 -0.00183388 
0.000161514 8.59795e-09 6.02824e-09 -9.2063e-08 0 0 -0.000161514 -0.000993485 
0.000464028 -1.87967e-08 2.64496e-07 -2.05144e-09 0 0.000464028 9.09788e-11 0.0697987 
0.00028637 1.06052e-08 1.63231e-07 -3.02952e-09 0 0.00028637 0 0.00682772 
0.00033365 4.72297e-09 -1.90181e-07 1.24102e-09 0 -0.00033365 0 0.00576554 
0.000283956 3.98866e-09 1.66114e-07 6.74932e-10 0 0.000283956 0 0.00440274 
0.000113631 1.65954e-10 -4.25757e-09 -6.6474e-08 0 0 -0.000113631 0.0196903 
0.000192499 4.34645e-09 1.09725e-07 4.41549e-10 0 0.000192499 0 -0.0068348 
4.4164e-05 -3.66868e-10 -2.51735e-08 4.17256e-09 0 -4.4164e-05 0 -0.00244316 
0.000152385 5.8607e-09 8.68596e-08 -2.06428e-09 0 0.000152385 0 0.00429432 
0.000177033 -3.63561e-09 7.65316e-09 1.00909e-07 0 0 0.000177033 0.000436057 
0.000316278 8.64532e-09 -6.75222e-11 -1.85023e-07 0 0 -0.000316278 0.00616706 
0.000121006 -1.73809e-09 6.89733e-08 1.22186e-09 0 0.000121006 2.37261e-11 -0.00366912 
0.000173304 1.26346e-08 3.36249e-09 9.87831e-08 0 0 0.000173304 0.0275893 
0.000150542 -1.5356e-08 1.48139e-08 8.80669e-08 0 0 0.000150542 0.036985 