ITEM: TIMESTEP
425
ITEM: NUMBER OF SURFS
6916
ITEM: BOX BOUNDS oo rr rr
-0.35 0.35
-0.25 0.25
-0.25 0.25
ITEM: SURFS f_save[1] f_save[2] f_save[3] f_save[4] f_save[5] f_save[6] f_save[7] f_save[8] 
0.00486367 -3.64927e-08 1.8192e-09 -2.53546e-10 -0.00486367 0 0 2.63033 
0 0 0 0 0 0 0 0 
0 0 0 0 0 0 0 0 
0 0 0 0 0 0 0 0 
0.00641155 -1.56282e-08 0 0 -0.00641155 0 0 0 
0.00496329 -1.20981e-08 0 0 -0.00496329 0 0 0 
0.00211104 -5.01371e-09 -5.98564e-10 -2.90539e-10 -0.00211104 0 0 3.66332 
0.00546282 -1.29742e-08 0 0 -0.00546282 0 0 0 
0.00776845 -1.84501e-08 0 0 -0.00776845 0 0 0 
0.0059166 -1.40519e-08 0 0 -0.0059166 0 0 0 
0 0 0 0 0 0 0 0 
0.00540459 -1.31737e-08 0 0 -0.00540459 0 0 0 
0.0138099 -3.36618e-08 0 0 -0.0138099 0 0 0 
0.00461632 -1.09638e-08 1.89698e-10 1.00528e-10 -0.00461632 0 0 1.26159 
0.0116443 -2.76554e-08 0 0 -0.0116443 0 0 0 
0.00358438 -8.51296e-09 0 0 -0.00358438 0 0 0 
0 0 0 0 0 0 0 0 
0.00517812 -1.2298e-08 0 0 -0.00517812 0 0 0 
0 0 0 0 0 0 0 0 
0 0 0 0 0 0 0 0 
0.00639544 -1.51892e-08 0 0 -0.00639544 0 0 0 
0 0 0 0 0 0 0 0 
0 0 0 0 0 0 0 0 
0.00198554 -4.71566e-09 0 0 -0.00198554 0 0 0 
0.00266799 -6.3365e-09 0 0 -0.00266799 0 0 0 
0 0 0 0 0 0 0 0 
0 0 0 0 0 0 0 0 
0.00253163 -6.01261e-09 0 0 -0.00253163 0 0 0 
0 0 0 0 0 0 0 0 
0.00326934 -8.1734e-09 0 0 -0.00326934 0 0 3.12191e-15 
0.00384974 -1.82863e-07 -2.03741e-10 -2.00396e-09 -0.00384974 0 0 0.532674 
0.00447068 -3.84479e-07 2.59041e-09 -2.33096e-09 -0.00447068 0 0 0.766267 
0.00311525 -1.47974e-07 -3.26609e-10 1.25946e-09 -0.00311525 0 0 0.390354 
0.00524518 -1.31129e-08 0 0 -0.00524518 0 0 0 
0 0 0 0 0 0 0 0 
0.000319001 7.57628e-10 0 0 0.000319001 0 0 0 
0.000326633 7.75755e-10 0 0 0.000326633 0 0 0 
0.000946516 1.15357e-09 0 0 0.000946516 0 0 0 
0 0 0 0 0 0 0 0 
0 0 0 0 0 0 0 0 
0.000374104 8.88496e-10 0 0 0.000374104 0 0 0 
0 0 0 0 0 0 0 0 
0.00447145 1.06197e-08 0 0 0.00447145 0 0 0 
0 0 0 0 0 0 0 0 
0.000422259 1.00287e-09 0 0 0.000422259 0 0 0 
0 0 0 0 0 0 0 0 
0 0 0 0 0 0 0 0 
0.000305612 7.25828e-10 0 0 0.000305612 0 0 0 
0.000311583 7.40011e-10 0 0 0.000311583 0 0 0 
0 0 0 0 0 0 0 0 
0.000553874 1.35007e-09 0 0 0.000553874 0 0 0 
0 0 0 0 0 0 0 0 
0 0 0 0 0 0 0 0 
0 0 0 0 0 0 0 0 
0 0 0 0 0 0 0 0 
0.000558927 1.36239e-09 0 0 0.000558927 0 0 0 
0.00055724 1.35827e-09 0 0 0.00055724 0 0 0 
0.000329311 8.02695e-10 -4.78697e-10 9.13518e-10 0.000329311 0 0 -0.0656571 
0.000584116 1.38728e-09 0 0 0.000584116 0 0 0 
0 0 0 0 0 0 0 0 
0.000195393 4.7627e-10 0 0 0.000195393 0 0 0 
0 0 0 0 0 0 0 0 
1.25522e-05 -3.04735e-07 2.51945e-07 2.56633e-07 0 8.87572e-06 8.87572e-06 0.0186217 
1.38325e-05 -2.11417e-07 -1.21461e-07 -1.30891e-07 0 -9.78106e-06 -9.78107e-06 0.0281526 
0.000260362 -6.7408e-09 1.48407e-07 4.42533e-10 0 0.000260362 0 0.0136066 
0.000233755 -1.15465e-08 -1.3324e-07 -1.94723e-09 0 -0.000233755 0 0.0428837 
0.000178798 3.77617e-09 1.01915e-07 2.4442e-09 0 0.000178798 0 0.00064506 
0.000288561 -4.18022e-09 -1.6448e-07 -1.09489e-09 0 -0.000288561 0 0.0164416 
0.000242782 5.27304e-09 1.38386e-07 3.04069e-09 0 0.000242782 0 -0.00121982 
0.000246139 -9.36034e-09 -2.25082e-10 1.40299e-07 0 0 0.000246139 0.0263509 
0.000260456 -5.53479e-09 3.60908e-09 1.52367e-07 0 0 0.000260456 0.0369462 
0.000183965 4.26845e-09 1.52754e-09 -1.07619e-07 0 0 -0.000183965 -0.000826384 
0.000237689 7.09098e-09 1.87205e-09 1.39048e-07 0 0 0.000237689 -0.00126996 
0.000139847 -1.20652e-09 7.97128e-08 1.71204e-10 0 0.000139847 0 0.0145032 
8.49499e-05 -6.28092e-09 4.96957e-08 -4.04149e-09 0 8.49499e-05 0 0.0233737 
0.000207072 -7.293e-09 4.16694e-09 -1.18031e-07 0 0 -0.000207072 0.0427247 
0.000193685 -6.27996e-10 1.104e-07 -8.50261e-10 0 0.000193685 0 0.00111119 
0.000153968 -1.1316e-08 -8.77617e-08 1.27952e-09 0 -0.000153968 0 0.0430278 
0.000180272 -1.22508e-08 -2.93421e-09 1.02755e-07 0 0 0.000180272 0.045741 
0.000194254 2.27065e-09 -3.68735e-09 1.10725e-07 0 0 0.000194254 0.00327783 
0.000138265 -1.2405e-08 1.09338e-09 -7.88108e-08 0 0 -0.000138265 0.0380166 
0.000150031 -4.69922e-09 -8.55174e-08 -5.51525e-09 0 -0.000150031 0 0.0192241 
0.000165194 -6.43867e-09 9.41606e-08 -7.53255e-10 0 0.000165194 0 0.0242503 
0.000234296 2.2209e-09 1.37714e-09 -1.33549e-07 0 0 -0.000234296 5.66922e-05 
0.000173849 -9.50597e-09 1.01701e-07 -2.21538e-09 0 0.000173849 0 0.0180437 
0.000131873 3.25083e-09 -3.83258e-09 7.7146e-08 0 0 0.000131873 -0.00216754 
0.000196566 3.55251e-09 -1.14991e-07 -8.81698e-10 0 -0.000196566 0 -0.00103565 
0.000131794 -4.48572e-09 -2.45165e-09 -7.51228e-08 0 0 -0.000131794 0.0247924 
0.000193622 -8.02164e-10 -1.13269e-07 -4.90882e-10 0 -0.000193622 0 0.0077009 
0.000191766 -1.96966e-08 3.22136e-09 1.12183e-07 0 0 0.000191766 0.060275 
0.000100374 -3.45138e-09 1.34021e-09 -5.72132e-08 0 0 -0.000100374 0.0189702 
0.000109335 9.82989e-10 -6.39611e-08 -1.74771e-09 0 -0.000109335 0 0.014117 
0.000223355 8.88463e-10 -1.27312e-07 -9.26028e-09 0 -0.000223355 0 0.00248713 
0.000145734 7.07925e-10 -4.23675e-10 4.26272e-08 0 0 0.000145734 -0.000137006 
0.000158857 -8.97061e-09 -1.76044e-09 9.05487e-08 0 0 0.000158857 0.0381555 
0.000164 -8.92555e-09 3.01357e-09 -9.348e-08 0 0 -0.000164 0.0371394 
0.000134839 -6.34492e-09 -5.3416e-10 7.68583e-08 0 0 0.000134839 0.0232604 
9.84585e-05 -6.49172e-09 -5.61214e-08 7.13134e-10 0 -9.84585e-05 0 0.0234704 
0.000140145 -4.50863e-09 -7.57561e-10 -7.98827e-08 0 2.74788e-11 -0.000140145 0.0279244 
0.000139211 8.1567e-10 -7.93505e-08 2.59883e-09 0 -0.000139211 0 -6.89669e-05 
9.49789e-05 -1.32131e-08 -5.4138e-08 2.70074e-09 0 -9.49789e-05 0 0.0338415 
8.53629e-05 1.43076e-10 -6.91302e-10 4.86569e-08 0 0 8.53629e-05 -0.000377147 
0.000187273 -4.71946e-09 1.06746e-07 1.802e-09 0 0.000187273 0 0.0268398 
0.000113042 -1.39521e-09 -1.9051e-09 -6.4434e-08 0 0 -0.000113042 0.00375427 
0.000214429 -5.70314e-09 -1.22224e-07 4.19745e-10 0 -0.000214429 0 0.0142535 
0.000154994 -1.38025e-08 2.55348e-09 -8.83467e-08 0 0 -0.000154994 0.0455113 
0.000354618 -5.90087e-10 2.52655e-08 1.06642e-09 -6.74618e-07 0.000354618 0 -0.00737871 
0.000494767 5.09174e-11 9.00423e-09 -2.81745e-10 -3.35568e-05 0.000493117 -2.24495e-05 -0.0346956 
0.000249947 -3.48873e-10 4.04365e-09 3.73336e-10 -2.73914e-06 0.000249782 -8.66717e-06 0.000379953 
0.000403172 5.81467e-10 7.24949e-09 -8.83415e-10 -1.25093e-05 0.000402422 -2.11661e-05 -0.0435203 
0.00028666 9.74837e-10 4.74746e-09 2.47023e-10 -5.0406e-06 0.000286598 -3.2417e-06 0.00845284 
0.000420706 -1.33436e-11 7.88826e-10 0 -7.11556e-06 0.000420646 0 -1.08384e-17 
0.000588931 9.96721e-10 1.42066e-08 -1.22044e-09 -3.11605e-07 0.000588879 7.84409e-06 0.00687455 
0.00047996 -4.85457e-10 8.85533e-09 1.67194e-10 -1.83675e-05 0.000479515 9.49071e-06 -0.0431864 
0.000334959 -5.47394e-10 5.38832e-09 3.44261e-10 -4.04187e-06 0.000334733 1.16149e-05 -0.0247716 
0.000268884 -7.02163e-11 1.9158e-08 6.83768e-10 -1.2808e-07 0.000268884 0 -0.0139255 
0.000148822 5.89356e-10 2.25248e-11 1.06047e-08 -2.83115e-07 0 0.000148822 0.00453912 
0.000232159 -1.21031e-09 8.59182e-10 4.10797e-09 -1.57459e-05 1.0534e-05 0.000231385 0.00280134 
0.000395639 -2.97222e-11 1.16926e-09 6.3453e-09 -4.33575e-06 1.37192e-05 0.000395377 -0.018159 
0.000105054 7.93901e-11 1.81433e-10 1.88931e-09 -3.25951e-06 5.51521e-06 0.000104858 -0.00061259 
0.000346844 -2.083e-10 -4.61891e-10 5.72162e-09 -6.09886e-06 3.92229e-06 0.000346769 0.00643244 
0 0 0 0 0 0 0 0 
0.000338099 5.76011e-10 -4.28147e-10 8.14083e-09 -1.78889e-07 -4.50321e-06 0.000338069 -0.00852535 
0.000288262 -3.93939e-10 -9.75769e-11 5.31461e-09 -1.10314e-05 -5.70008e-06 0.000287995 -0.00114545 
0.000242339 -4.71711e-11 -1.35553e-10 3.90654e-09 -2.92425e-06 -8.40325e-06 0.000242176 -1.89e-17 
0.000199964 7.30088e-10 -1.45898e-09 1.42478e-08 -9.5251e-08 0 0.000199964 0.00540955 
0.000230395 1.3998e-09 -1.64184e-08 1.09217e-09 -4.38299e-07 -0.000230395 0 -0.00076071 
0.00024472 -7.07537e-09 -3.95331e-09 5.15752e-10 -1.65978e-05 -0.000243904 1.11039e-05 0.645912 
0.000352239 1.58823e-10 -5.67561e-09 3.39837e-10 -3.86015e-06 -0.000352006 1.22143e-05 0.00532318 
0.0002062 -1.33842e-10 -3.7036e-09 2.75005e-10 -6.39779e-06 -0.000205816 1.08253e-05 0.00411003 
0.000243626 -7.0633e-11 -4.01605e-09 4.54253e-11 -4.28388e-06 -0.000243572 2.75504e-06 -1.72579e-17 
0 0 0 0 0 0 0 0 
0.000248222 -3.16413e-12 -5.97964e-09 -7.96511e-11 -1.31335e-07 -0.000248199 -3.30611e-06 1.05455e-17 
0.000223334 -1.57932e-10 -4.12307e-09 -8.16052e-11 -8.54674e-06 -0.000223127 -4.4162e-06 1.35291e-16 
0 0 0 0 0 0 0 0 
0.000238118 1.13734e-09 -1.69664e-08 5.26661e-10 -1.13425e-07 -0.000238118 0 -0.000367012 
0.000315133 -3.73289e-09 3.51214e-10 -2.24462e-08 -5.99502e-07 0 -0.000315132 0.102535 
0.000317198 -3.90622e-10 -2.61326e-10 -5.74018e-09 -2.15135e-05 -1.43925e-05 -0.00031614 1.70708e-17 
0.000117932 -7.74492e-09 -6.23705e-10 -1.79703e-09 -1.29241e-06 -4.08943e-06 -0.000117854 0.702938 
0.000187836 -2.12261e-10 6.00739e-11 -3.38729e-09 -5.828e-06 -9.8612e-06 -0.000187486 -0.000369241 
0.000296525 -6.10113e-10 -4.6543e-10 -4.87421e-09 -5.21406e-06 -3.35325e-06 -0.00029646 -0.0225476 
0 0 0 0 0 0 0 0 
0.000153216 -7.01082e-09 6.93892e-10 -3.67867e-09 -8.1067e-08 2.04071e-06 -0.000153202 0.579954 
0.000303261 -2.14452e-10 1.1081e-10 -5.59864e-09 -1.16055e-05 5.99668e-06 -0.00030298 -1.75988e-17 
9.66842e-05 -1.88195e-11 5.40806e-11 -1.55856e-09 -1.16666e-06 3.35258e-06 -9.6619e-05 -1.26e-18 
0.000137824 -2.13859e-10 2.28103e-10 -9.81987e-09 -6.56512e-08 0 -0.000137824 -0.00152526 
1.52225e-05 0 1.27158e-09 -1.27158e-09 0 1.0764e-05 -1.0764e-05 0 
0 0 0 0 0 0 0 0 
0 0 0 0 0 0 0 0 
0 0 0 0 0 0 0 0 
0 0 0 0 0 0 0 0 
0 0 0 0 0 0 0 0 
0 0 0 0 0 0 0 0 
0 0 0 0 0 0 0 0 
0 0 0 0 0 0 0 0 
0 0 0 0 0 0 0 0 
0 0 0 0 0 0 0 0 
0 0 0 0 0 0 0 0 
0 0 0 0 0 0 0 0 
0 0 0 0 0 0 0 0 
0 0 0 0 0 0 0 0 
0 0 0 0 0 0 0 0 
0.000362663 -1.92507e-09 8.30387e-09 3.54592e-11 -6.32554e-05 0.000356975 -9.5862e-06 -0.0144233 
0.000256936 -7.71754e-10 3.05106e-09 -6.15807e-10 -6.1834e-05 0.000244455 -4.93393e-05 -1.83203e-18 
0.000667604 -4.68796e-10 5.01576e-09 -1.05682e-09 -0.000144075 0.000649738 -5.27114e-05 0.0696724 
0.000523508 -1.68266e-09 8.945e-09 -7.42191e-10 -9.64606e-05 0.000512783 -4.2547e-05 -1.58461e-16 
0.000487394 -1.42665e-09 9.19547e-09 -1.29539e-09 -9.50168e-05 0.000474878 -5.49209e-05 -0.000774231 
0.000347773 -5.30924e-10 2.38858e-09 -3.73516e-10 -8.2202e-05 0.000335664 -3.89737e-05 0.0246747 
0.000265519 -7.24016e-10 3.26751e-09 -4.9208e-10 -5.68296e-05 0.000256474 -3.86245e-05 -5.62364e-17 
0.000214717 -6.46812e-10 2.79532e-09 -3.84947e-10 -4.79747e-05 0.000207332 -2.85519e-05 1.20602e-17 
0.000443005 -9.97339e-10 5.00774e-09 -1.13847e-09 -0.000103209 0.000420738 -9.26289e-05 0.0128534 
0.000364718 -1.00953e-09 4.05318e-09 -5.37978e-10 -6.99963e-05 0.000357523 -1.72413e-05 0.0223432 
0.000274224 -1.20021e-09 3.0269e-09 -4.72849e-10 -6.57182e-05 0.000259287 -6.04181e-05 -0.0255707 
0.00015956 -2.61544e-09 2.60473e-09 6.8132e-10 -2.80185e-05 0.000156968 5.94031e-06 0.277247 
0.000255332 -7.27288e-09 2.22494e-09 -2.64642e-10 -5.35298e-05 0.000248468 2.43473e-05 0.778423 
0.000370643 -4.75862e-10 8.73349e-09 -2.18997e-10 -6.53108e-05 0.000364586 1.36992e-05 0.0150031 
0.000963244 -2.25402e-09 8.57988e-09 1.73171e-09 -0.000240215 0.000914372 0.000184552 -1.27798e-16 
0.000817256 -1.31289e-09 5.31766e-09 8.05161e-10 -0.00019381 0.000784996 0.000118858 -2.16028e-16 
0.000525454 -3.07652e-09 5.79099e-09 2.45193e-09 -0.000119502 0.000504624 8.47091e-05 -0.0378591 
0.000438755 -1.2302e-09 5.76094e-09 7.13063e-10 -9.09628e-05 0.000425971 5.27248e-05 -5.93629e-17 
0.000485391 -1.01876e-09 5.01017e-09 4.28039e-10 -9.63821e-05 0.000473998 4.04956e-05 -1.53832e-17 
0.000259678 -8.20677e-10 4.92193e-09 -5.09956e-10 -4.6617e-05 0.000255144 1.26818e-05 0.03378 
0.000403516 -1.33207e-09 7.10662e-09 -5.00308e-10 -7.89532e-05 0.000391484 5.77212e-05 0.0157547 
8.74924e-05 -2.10549e-10 9.84277e-10 1.66026e-10 -1.80577e-05 8.44161e-05 1.42391e-05 3.48634e-18 
0.000329701 -1.98287e-09 4.25541e-10 3.65774e-09 -5.93865e-05 3.01622e-05 0.000322903 -0.0151982 
0.000340119 -5.75298e-10 2.84607e-10 2.33803e-09 -8.07042e-05 3.99253e-05 0.000327984 0 
0.000715411 -2.90304e-10 -1.65382e-10 1.27345e-08 -0.000130368 4.7016e-05 0.000701859 0.00892457 
0.000217535 -9.91025e-10 -7.33041e-10 4.08817e-09 -4.16493e-05 1.55875e-05 0.000212941 0.011224 
0.000466025 -1.05835e-09 2.95845e-10 5.21821e-09 -9.24897e-05 2.5854e-05 0.000456022 -1.68741e-17 
0.000568973 -1.2056e-09 3.25179e-10 8.26276e-09 -0.000118089 4.46824e-05 0.000554787 0.0160983 
0.00038604 -6.70471e-09 2.85619e-10 2.89583e-09 -8.49387e-05 8.52263e-05 0.000366809 0.940901 
6.65487e-05 -1.09336e-10 6.01606e-11 4.49319e-10 -1.56031e-05 8.5854e-06 6.41214e-05 -5.80109e-18 
0.000436461 -1.56393e-09 6.89233e-10 8.17227e-09 -7.81209e-05 1.62391e-05 0.000429106 -0.00197731 
0.000739872 -8.90455e-10 1.66802e-09 7.28309e-09 -0.000175428 0.000202726 0.000689592 -0.0268063 
0.000357534 -6.56297e-10 4.73791e-10 2.68938e-09 -7.73234e-05 8.19635e-05 0.000339313 -0.034163 
0.000593764 -2.25753e-09 -1.36723e-09 1.21672e-08 -0.000111455 -3.54624e-05 0.00058213 0.00312999 
0.00118943 -9.73399e-09 -9.86543e-10 6.27728e-09 -0.000282231 -0.000139623 0.00114699 1.74438 
0.000309079 -5.65699e-10 -6.78237e-10 2.20868e-09 -7.35043e-05 -8.8127e-05 0.000286985 2.64094e-18 
0.00013697 -2.1077e-10 -7.41286e-11 9.13733e-10 -3.06905e-05 -1.0794e-05 0.00013305 2.95955e-18 
0.000372981 -1.81777e-10 -1.10647e-09 4.04603e-09 -8.85422e-05 -9.02327e-05 0.000350903 -0.0147192 
0.000354828 -6.62805e-10 -3.27397e-10 3.9319e-09 -7.37972e-05 -7.05539e-05 0.000339822 -0.00685041 
0.000484694 -1.04493e-09 -4.36212e-10 5.14071e-09 -9.62156e-05 -4.01657e-05 0.000473348 3.74299e-18 
9.52548e-05 -8.46995e-10 2.6376e-10 1.55649e-09 -1.84429e-05 -9.19816e-06 9.29985e-05 -0.00485527 
0.000417688 -1.19314e-08 -1.09125e-09 2.7407e-08 -7.25206e-05 -4.47402e-06 0.00041132 0.187808 
0.000361021 -1.86239e-09 -1.24744e-09 8.46109e-09 -6.40271e-05 -2.57268e-05 0.000354366 -0.0118662 
0.000376022 -1.58823e-09 -8.70803e-09 -1.00528e-09 -6.55855e-05 -0.000370125 9.93933e-06 -0.00356369 
0.000296467 -8.90493e-10 -3.52048e-09 7.10553e-10 -7.13475e-05 -0.000282066 5.69305e-05 -4.55972e-17 
0.000382748 -6.26816e-10 -2.82677e-09 2.29328e-10 -8.26003e-05 -0.000372505 3.02203e-05 2.67838e-17 
0.000621153 -1.99651e-09 -1.06134e-08 8.80624e-10 -0.000114452 -0.000608427 5.04828e-05 -1.73608e-16 
0.000401887 -1.02497e-09 -7.64006e-09 8.30141e-10 -7.83473e-05 -0.000391566 4.52858e-05 0.000770835 
7.05225e-05 -1.18522e-10 -4.83973e-10 5.61938e-11 -1.66692e-05 -6.80669e-05 7.9032e-06 -1.42928e-18 
0.000637496 -1.80573e-09 -7.92103e-09 5.78125e-10 -0.000136445 -0.000615779 9.27351e-05 -0.0133107 
0.000197375 -7.95858e-09 -9.93034e-10 -5.71616e-10 -4.41e-05 -0.000190586 2.62459e-05 0.900676 
0.000506247 -1.1353e-08 -3.39858e-09 4.77391e-10 -0.000117943 -0.000480802 0.000105852 1.61998 
0.000147748 1.7407e-11 -1.7329e-09 6.3041e-11 -2.83557e-05 -0.000144833 6.98448e-06 0.00178082 
0.000770419 -5.61756e-10 -9.25809e-09 1.14861e-09 -0.000184632 -0.000728454 0.000169742 -0.00517296 
0.000296269 -5.21766e-10 -5.64867e-09 -2.47072e-10 -5.20244e-05 -0.000291457 -1.10299e-05 -0.00405702 
0.000178905 -6.82706e-10 -2.46993e-09 -2.20842e-10 -3.7507e-05 -0.000174095 -1.70596e-05 -4.89361e-05 
0.000347014 -9.95838e-10 -8.04376e-09 -7.10304e-10 -6.11473e-05 -0.000341344 -1.28259e-05 0.00960479 
0.000389506 -9.11457e-10 -3.46943e-09 -7.00251e-10 -9.71355e-05 -0.000369744 -7.46269e-05 8.6643e-18 
0.000682499 -1.09641e-09 -4.44083e-09 -6.72397e-10 -0.000161852 -0.000655558 -9.92597e-05 3.0004e-18 
0.000301564 -8.68809e-10 -3.66873e-09 -6.15854e-10 -6.85837e-05 -0.000289609 -4.86154e-05 8.82451e-18 
0.000338639 -9.49493e-10 -4.4464e-09 -5.50355e-10 -7.02067e-05 -0.000328772 -4.0694e-05 -2.40457e-17 
0.000328654 -1.19734e-09 -3.33701e-09 2.70569e-10 -6.52596e-05 -0.000320941 -2.74189e-05 -0.0156316 
0.000394596 -1.3526e-09 -7.40306e-09 -3.67964e-10 -7.08372e-05 -0.000387707 -1.92707e-05 9.84611e-18 
0.000537297 -1.85063e-09 -8.98168e-09 -2.49129e-09 -0.000105129 -0.000521276 -7.68581e-05 0.0013468 
0.000278936 -6.71257e-10 -3.138e-09 -5.29311e-10 -5.757e-05 -0.000269129 -4.53961e-05 1.18535e-16 
3.01094e-05 -6.54421e-11 -3.32378e-11 -3.55829e-10 -5.42336e-06 -2.75451e-06 -2.94885e-05 0 
0 0 0 0 0 0 0 0 
0.000454994 -1.45278e-09 -5.23933e-10 -7.82131e-09 -8.29127e-05 -2.99017e-05 -0.000446376 3.50896e-17 
0.000143673 -5.20201e-10 -7.52524e-10 -2.63582e-09 -2.75076e-05 -1.02949e-05 -0.000140638 0.00518345 
0.000463801 -8.65555e-09 -1.07321e-09 -3.60728e-09 -9.20484e-05 -2.57307e-05 -0.000453846 0.98421 
0.000404787 -1.70487e-09 -2.0723e-09 -5.54982e-09 -8.40125e-05 -3.17886e-05 -0.000394695 0.0101943 
0.000409132 -9.16799e-10 -1.72421e-09 -4.17189e-09 -9.00195e-05 -9.03243e-05 -0.000388751 -0.00237823 
0.000391892 -6.43858e-10 -3.54271e-10 -2.64595e-09 -9.18836e-05 -5.05572e-05 -0.000377599 0 
0.000420332 -1.43761e-09 -2.98838e-10 -7.89656e-09 -7.5234e-05 -1.5639e-05 -0.000413249 -2.44643e-17 
0.000128601 -3.07294e-10 -3.55112e-10 -1.20795e-09 -3.0492e-05 -3.52368e-05 -0.000119861 -1.61344e-17 
0.000284921 -6.78461e-09 -1.61253e-10 -7.68531e-10 -6.16195e-05 -6.53173e-05 -0.000270401 1.41925 
0.000234425 -8.8652e-10 3.88935e-10 -4.81384e-09 -4.40036e-05 1.4001e-05 -0.000229832 -0.00727124 
0.00112105 -2.24396e-09 1.59384e-09 -7.54088e-09 -0.000266006 0.000131596 -0.00108105 -0.0395653 
0.000153228 -2.8045e-10 3.36242e-10 -1.09497e-09 -3.64403e-05 4.36896e-05 -0.000142275 -6.60235e-18 
0.000274421 -4.22281e-10 1.48518e-10 -1.83068e-09 -6.14889e-05 2.16259e-05 -0.000266568 0 
3.9416e-05 -1.03293e-10 1.05265e-10 -4.09361e-10 -9.35699e-06 9.53563e-06 -3.70829e-05 -2.76178e-18 
0.000325982 -7.58284e-10 7.24959e-10 -3.49175e-09 -6.77979e-05 6.48182e-05 -0.000312196 -2.33517e-16 
0.000216958 -1.89152e-10 3.5269e-10 -2.34434e-09 -4.30679e-05 1.79789e-05 -0.000211879 -0.00954303 
0.000717551 -2.2128e-10 1.78513e-09 -1.25733e-08 -0.000138929 6.92895e-05 -0.000700555 -0.000473016 
0.000369646 -3.62905e-09 8.36842e-10 -2.54779e-08 -6.41793e-05 3.95942e-06 -0.00036401 0.00488535 
0.000699879 -3.58403e-09 1.58351e-10 -1.65716e-08 -0.000124123 4.98742e-05 -0.000686976 -0.00587038 
0.000409537 -1.33978e-10 1.65495e-09 1.9259e-10 -2.30425e-05 0.000384828 0.000138191 -0.00667046 
0.00113868 -2.55924e-10 5.00902e-09 1.53816e-09 -5.55489e-05 0.00108722 0.000333861 3.86015e-17 
0 0 0 0 0 0 0 0 
0.000183869 -6.01616e-11 1.76831e-09 7.44361e-10 -5.76278e-06 0.000169384 7.1301e-05 1.9469e-18 
0.000377445 -1.30768e-11 1.05305e-08 8.19667e-10 -4.67298e-07 0.000376306 2.92907e-05 9.51471e-17 
0.000543946 -1.38645e-10 1.8698e-09 9.70403e-10 -3.5722e-05 0.000481756 0.000250025 6.2841e-17 
0.000954003 -7.31548e-10 6.6044e-09 3.708e-09 -4.94242e-05 0.000877684 0.000370607 0.0087345 
0.00200172 -4.4366e-10 8.89819e-09 5.15534e-09 -8.62777e-05 0.00173041 0.00100255 -5.05929e-16 
0.000434997 9.74161e-11 3.40094e-09 8.64466e-10 -2.22902e-05 0.000404215 0.000159173 0.0245257 
0.000128513 3.37622e-10 8.47288e-10 7.19582e-10 -5.14516e-06 0.000120452 4.45037e-05 0.0316569 
0.00011577 -3.2063e-11 1.13298e-09 4.30938e-10 -3.06118e-06 0.000108169 4.11433e-05 -4.85127e-19 
0.000118141 -1.67883e-11 9.0876e-10 2.68968e-10 -2.09245e-06 0.000113266 3.35236e-05 -1.77329e-17 
0 0 0 0 0 0 0 0 
0.000235738 2.09947e-10 4.03621e-09 -2.54477e-10 -1.75215e-06 0.0002326 3.82996e-05 -0.00548343 
0.000642696 -9.18817e-09 1.54076e-08 4.14304e-09 -2.33643e-06 0.000634567 0.000101867 0.835486 
0.000306937 -1.12747e-10 2.06212e-09 1.46863e-09 -1.36559e-05 0.000249764 0.000177881 -7.69303e-17 
0.000621011 -1.1629e-10 7.25172e-09 2.53228e-09 -9.40082e-06 0.000586226 0.000204708 2.6782e-16 
0.000351637 -6.62209e-11 1.74359e-09 6.71981e-10 -1.24537e-05 0.000327906 0.000126375 -1.72008e-17 
6.98124e-05 -1.56907e-11 3.07103e-10 -9.43047e-11 -3.40569e-06 6.66573e-05 -2.0469e-05 0 
0 0 0 0 0 0 0 0 
0.000212627 -5.66918e-11 2.292e-09 -5.4355e-10 -5.11584e-06 0.000206829 -4.90497e-05 -4.35604e-18 
0.00071314 -1.48823e-09 7.81375e-09 -1.2967e-09 -1.41907e-05 0.000697237 -0.00014909 0.0191638 
0 0 0 0 0 0 0 0 
0.00321012 -1.64735e-09 2.11952e-08 -1.25513e-08 -0.000214203 0.00275599 -0.00163203 -1.01221e-15 
0.000338954 -2.79904e-10 5.64056e-09 -6.37134e-10 -1.13946e-06 0.000336 -4.46356e-05 -0.000290362 
0.00200164 -2.85764e-10 1.60338e-08 -4.21127e-09 -3.44991e-05 0.00193569 -0.000508408 9.71688e-16 
0.000299012 -4.96826e-10 2.91762e-09 -1.22365e-09 -7.83369e-06 0.000280899 -0.00010219 -0.00397715 
0.000589882 2.18911e-10 5.24153e-09 -3.0436e-09 -2.24459e-05 0.000509086 -0.000297133 0.00804329 
0.000209553 -9.36345e-11 1.80573e-09 -1.15199e-09 -9.15199e-06 0.000176495 -0.000112597 -3.9732e-18 
0.000236446 -5.38942e-10 1.69292e-09 -3.58208e-10 -1.17668e-05 0.000191556 -0.000138111 -0.0270879 
0.00128595 -2.60898e-10 4.92513e-09 -1.67869e-09 -6.43971e-05 0.00121567 -0.000414349 -2.90975e-16 
0.000453214 -1.0395e-10 1.72892e-09 -6.30381e-10 -2.55599e-05 0.000425117 -0.000155002 1.49929e-17 
0.000321402 3.65668e-10 6.20867e-09 -1.1965e-09 -8.78176e-07 0.000320557 -2.32723e-05 0.0251496 
0.000480287 4.92356e-11 4.52947e-09 -1.16498e-09 -1.19615e-05 0.000466729 -0.000112678 0.0161994 
0.00325285 -8.29123e-10 1.11816e-08 -5.8031e-09 -0.000213624 0.00288094 -0.00149517 -1.34061e-15 
0.00060468 -1.39397e-10 9.34317e-10 -2.2274e-09 -3.48391e-05 0.00023351 -0.000556684 -8.12761e-17 
0.00219035 -1.10345e-10 6.42919e-10 -2.15363e-09 -0.000107407 0.000625803 -0.0020963 1.18704e-16 
0.000335849 -5.15963e-11 6.46718e-10 -3.59842e-09 -8.51665e-06 9.95644e-05 -0.000320639 0.00619401 
0.000324756 -2.31296e-09 1.07485e-09 -6.17118e-09 -3.97377e-06 4.35156e-05 -0.000321803 0.345517 
0.000699635 -3.66158e-10 3.4531e-09 -4.04776e-09 -4.80349e-05 0.000453 -0.000531011 3.83957e-16 
0.000890775 -2.05808e-10 1.38585e-09 -3.282e-09 -5.13737e-05 0.000345933 -0.00081925 3.80514e-17 
0 0 0 0 0 0 0 0 
0 0 0 0 0 0 0 0 
0.0016755 -1.55714e-10 4.82277e-09 -1.23841e-08 -6.85136e-05 0.000644905 -0.0015449 0.0233407 
0 0 0 0 0 0 0 0 
0.000605517 -4.85422e-10 -9.76114e-10 -7.09688e-09 -1.27376e-05 0.000164235 -0.000582679 0.87486 
0.000193824 -1.39771e-10 1.06211e-09 -1.9093e-09 -3.9888e-06 4.76492e-05 -0.000187833 -0.00124096 
0.000641685 -1.71863e-09 5.71775e-09 -9.61228e-09 -6.83688e-06 0.000143516 -0.000625393 0.631223 
0.000187033 9.41654e-11 1.33813e-09 -2.82142e-09 -1.4188e-06 3.68405e-05 -0.000183363 -0.013725 
0 0 0 0 0 0 0 0 
0.000650595 -1.18507e-09 2.70709e-09 -1.0119e-08 -1.00431e-05 0.000199701 -0.000619106 -0.000721472 
0.000324967 -5.12815e-09 1.32675e-09 -7.92423e-09 -7.48235e-07 4.25071e-05 -0.000322174 0.493709 
0.000370453 9.65419e-13 -8.98239e-12 -2.1567e-09 1.65827e-07 -1.54288e-06 -0.00037045 -1.57103e-17 
0.000722306 -2.22914e-09 -3.50142e-09 -5.98955e-09 -2.70426e-05 -0.000183741 -0.000698022 0.773238 
0.000123746 6.45938e-10 -1.28579e-09 -1.98882e-09 -8.73762e-07 -1.60728e-05 -0.000122695 0.00356634 
0.000490315 -1.10069e-10 -1.31484e-09 -5.18314e-09 -1.00905e-05 -0.000120537 -0.000475161 -1.62106e-16 
0.000346932 -3.33987e-09 -1.59127e-09 -3.38045e-09 -8.62856e-06 -9.4091e-05 -0.000333818 0.468622 
0.000329818 2.82926e-10 -6.36221e-10 -1.627e-09 -1.35826e-05 -0.000131478 -0.000302174 0.055146 
0.000372901 -1.92629e-10 -1.5855e-09 -2.36056e-09 -2.5203e-05 -0.000207442 -0.000308849 -1.06371e-17 
0 0 0 0 0 0 0 0 
0.000545271 -4.55637e-09 -1.60374e-09 -9.14879e-09 -7.01278e-06 -9.75771e-05 -0.000536423 0.54879 
0.000892733 -4.39438e-09 -2.73854e-09 -8.83275e-09 -2.41079e-05 -0.000346228 -0.000822506 0.668261 
0.000264436 -8.8957e-11 -1.27525e-09 -2.39747e-09 -8.65788e-06 -0.000124115 -0.000233338 5.9345e-18 
0.000197278 -4.89331e-10 -6.89289e-10 -1.38656e-09 -8.06697e-06 -7.5933e-05 -0.0001819 -0.0715018 
0.000448094 -5.97044e-10 -1.90982e-09 -2.37537e-09 -2.20359e-05 -0.000242756 -0.000375995 -0.0190676 
0.0010385 -4.88225e-10 -4.54887e-09 -6.49493e-09 -6.38208e-05 -0.000594629 -0.000849017 3.50709e-16 
0.000301647 -6.76156e-11 -4.10031e-10 -1.12458e-09 -1.70122e-05 -0.000103165 -0.000282946 5.11382e-18 
0.000297788 4.57927e-10 7.88645e-10 -5.26284e-09 -1.29051e-06 -3.13403e-05 -0.000296131 0.0365158 
0.000139234 -5.11447e-11 -6.66208e-10 -9.35428e-10 -6.19464e-06 -8.06911e-05 -0.000113299 9.84707e-18 
0 0 0 0 0 0 0 0 
0.00105881 -4.51007e-10 -5.21268e-09 -5.0128e-09 -6.59032e-05 -0.000761701 -0.000732493 -7.84077e-16 
0.000117934 -5.37686e-11 -1.05276e-09 -3.00107e-10 -5.78561e-06 -0.00011328 -3.22922e-05 0 
0.000611355 -4.81473e-10 -6.11449e-09 -2.54588e-09 -1.80648e-05 -0.000583599 -0.000181219 0.0233029 
0.000402512 -4.08453e-10 -6.85299e-09 -8.54316e-10 -3.78889e-06 -0.000395996 -7.2033e-05 -0.00883568 
0.00015245 -7.87509e-11 -9.6505e-10 -6.48189e-10 -1.03036e-05 -0.000126264 -8.48072e-05 -4.25483e-17 
0.000591968 -2.46785e-10 -4.00743e-09 -2.20699e-09 -3.18859e-05 -0.00051778 -0.000285155 1.6807e-16 
0.000490249 -1.91276e-10 -4.33827e-09 -2.53207e-09 -1.86546e-05 -0.000423099 -0.000246946 1.18935e-17 
0 0 0 0 0 0 0 0 
0.000160911 -5.26982e-11 -1.57724e-09 -6.2926e-10 -4.99114e-06 -0.000149383 -5.95984e-05 3.08003e-17 
7.4561e-05 -2.87268e-11 -6.75999e-10 -3.5957e-10 -2.79541e-06 -6.57817e-05 -3.49899e-05 -7.91135e-18 
0.000112283 -1.162e-09 -5.84535e-10 -8.3701e-10 -2.12299e-06 -0.000104631 -4.06865e-05 -0.0407853 
0.000415298 -1.16022e-10 -3.63654e-09 -4.71621e-11 -5.39206e-06 -0.000407934 -7.76743e-05 -0.0505873 
0.0002642 -1.97995e-09 -4.37203e-09 -5.13175e-10 -2.0547e-06 -0.000259218 -5.10257e-05 0.336792 
0.00076172 -8.55587e-10 -1.79877e-08 -4.59565e-10 -2.09611e-08 -0.00076165 -1.03087e-05 0.0122416 
0.000367903 -1.16986e-10 -1.81461e-09 -1.32607e-09 -1.9124e-05 -0.00029664 -0.000216777 2.12646e-16 
0 0 0 0 0 0 0 0 
0.000158204 -3.62975e-10 -3.95988e-09 3.39359e-10 -1.8922e-07 -0.000157585 -1.39758e-05 0.00223688 
0.000516145 0 -3.87108e-09 2.46453e-11 6.41834e-23 -0.000516134 3.28598e-06 7.58786e-17 
0.000388574 -2.30245e-11 -1.0841e-08 8.43836e-10 -8.22778e-07 -0.000387401 3.01544e-05 4.81182e-17 
0.000299613 -3.50111e-11 -2.77144e-09 4.95475e-10 -3.7256e-06 -0.000294914 5.27244e-05 -1.08141e-17 
0.00151314 -3.99808e-10 -1.43073e-08 6.22056e-09 -3.87643e-05 -0.0013872 0.000603129 -3.78367e-16 
6.87309e-05 -4.28203e-09 -1.13968e-09 -2.99116e-10 -1.30691e-06 -6.40636e-05 2.48613e-05 0.524956 
0 0 0 0 0 0 0 0 
0 0 0 0 0 0 0 0 
0.000877059 -4.87934e-11 -1.41501e-08 3.51878e-09 -1.1866e-05 -0.00085476 0.000196152 -0.00878973 
0.000299676 -8.56604e-11 -2.77757e-09 1.33984e-09 -8.32095e-06 -0.00026981 0.00013015 0 
0.000395125 -1.31162e-10 -3.72767e-09 1.72533e-09 -1.26105e-05 -0.000358396 0.000165882 2.14956e-17 
0.000390638 4.297e-10 -2.5877e-09 1.03423e-09 -1.38351e-05 -0.000364276 0.000140391 0.0272569 
0 0 0 0 0 0 0 0 
0.00119559 -4.84944e-09 -7.8323e-09 5.00834e-09 -5.58596e-05 -0.00108896 0.000490386 1.63876 
0.000157357 -6.31803e-10 -7.98533e-10 1.09439e-09 -9.25805e-06 -0.000141386 6.84499e-05 0.0372254 
0.000280653 -2.60755e-09 -7.86466e-09 1.59125e-10 -6.90509e-07 -0.000279148 2.90142e-05 0.108329 
0.000226087 -4.28151e-11 -2.63322e-09 9.41363e-10 -3.46112e-06 -0.000212867 7.60988e-05 8.21527e-19 
0.000493389 -8.37349e-10 -2.56246e-09 1.63544e-09 -2.78954e-05 -0.000377731 0.000316186 -0.0115661 
0.00341259 -7.63107e-10 -4.5765e-09 1.27445e-08 -0.000192009 -0.00115152 0.0032067 6.54604e-16 
0.000151262 -4.39247e-11 -3.73068e-10 1.17539e-09 -5.38444e-06 -4.57319e-05 0.000144083 -1.59457e-16 
0.00123478 -3.13702e-09 -4.80501e-09 1.11243e-08 -3.07521e-05 -0.000289685 0.00119992 1.39373 
0.000175902 -4.20914e-10 -9.37108e-10 3.35234e-09 -1.20879e-06 -1.63593e-05 0.000175136 0.00203929 
0.000369317 -1.42563e-12 -1.76345e-11 2.76988e-09 -1.9008e-07 -2.35122e-06 0.00036931 1.08398e-17 
0.000354981 -9.04803e-11 -6.33288e-10 1.22024e-09 -2.33123e-05 -0.000163167 0.000314395 1.30919e-17 
0.000764743 -3.59525e-10 -3.34974e-09 4.7828e-09 -4.69971e-05 -0.000437878 0.000625208 0 
0.000868231 -2.86259e-10 -2.73075e-09 5.34392e-09 -4.13678e-05 -0.000394625 0.000772259 -3.75962e-16 
0.000610937 -2.22819e-10 -1.78412e-09 4.53071e-09 -2.7927e-05 -0.000223613 0.000567856 1.63036e-16 
0.000251497 -8.11487e-11 -7.43946e-10 1.85226e-09 -1.02159e-05 -9.36564e-05 0.000233184 0 
0.00147911 -3.48024e-10 -5.50577e-09 1.44752e-08 -3.32304e-05 -0.000525707 0.00138213 1.50113e-15 
0.000438187 -9.12831e-10 -5.2688e-10 4.67501e-09 -9.53438e-06 -0.000137075 0.000416086 -0.0151254 
0.000665531 -9.89011e-10 -2.19543e-09 7.00652e-09 -1.14705e-05 -0.000169044 0.000643603 -0.0172871 
0.00031795 3.22756e-10 -1.20794e-09 5.37423e-09 -1.60164e-06 -4.12976e-05 0.000315252 -0.00362482 
0 0 0 0 0 0 0 0 
0.00171503 -5.04794e-10 -4.2516e-09 2.1402e-08 -3.96653e-05 -0.000334079 0.00168171 -1.33676e-15 
7.19712e-05 -6.61581e-12 -2.95212e-10 1.75624e-09 -2.67365e-07 -1.19304e-05 7.0975e-05 6.57118e-18 
0.000378517 -9.07803e-11 -1.88365e-09 4.28605e-09 -7.33823e-06 -0.000152265 0.000346463 2.20159e-16 
0.000425098 1.3734e-10 6.80018e-10 1.84941e-09 -2.07377e-05 0.000124639 0.000405886 -0.0243242 
0.000643871 -2.47937e-09 2.88964e-09 1.00374e-08 -4.56156e-06 0.000126826 0.00063124 0.283538 
0.000915183 -2.24035e-10 2.04473e-09 1.15264e-08 -1.75115e-05 0.000159825 0.000900949 1.3345e-16 
0.00120716 -6.74725e-10 3.43537e-09 1.49687e-08 -2.79191e-05 0.000235148 0.00118371 -0.0391597 
4.56664e-05 -1.95308e-11 2.35861e-10 4.04107e-10 -1.90451e-06 2.29996e-05 3.94058e-05 -4.9549e-19 
0 0 0 0 0 0 0 0 
0 0 0 0 0 0 0 0 
0.00012279 -1.2035e-09 -8.28337e-11 2.05051e-09 -1.14514e-06 2.87246e-05 0.000119377 0.00419183 
0.000225478 -2.12316e-09 1.62923e-10 3.7888e-09 -3.15009e-06 5.72741e-05 0.00021806 0.213865 
0.000431055 -1.4117e-10 1.68569e-09 4.22518e-09 -1.33705e-05 0.000159655 0.000400175 1.05876e-17 
4.1801e-05 -1.3205e-11 9.5585e-11 3.30182e-10 -1.60464e-06 1.16152e-05 4.01228e-05 -6.1746e-19 
0.000991356 -4.42968e-10 5.44986e-09 8.54257e-09 -4.32964e-05 0.000532678 0.000834964 -2.54285e-16 