ITEM: TIMESTEP
200
ITEM: NUMBER OF SURFS
6916
ITEM: BOX BOUNDS oo rr rr
-0.35 0.35
-0.25 0.25
-0.25 0.25
ITEM: SURFS f_save[1] f_save[2] f_save[3] f_save[4] f_save[5] f_save[6] f_save[7] f_save[8] 
0.00594392 -4.4598e-08 -7.57524e-10 -2.00318e-09 -0.00594392 0 0 3.52028 
0 0 0 0 0 0 0 0 
0 0 0 0 0 0 0 0 
0 0 0 0 0 0 0 0 
0 0 0 0 0 0 0 0 
0 0 0 0 0 0 0 0 
0 0 0 0 0 0 0 0 
0 0 0 0 0 0 0 0 
0.00827179 -1.96455e-08 0 0 -0.00827179 0 0 0 
0 0 0 0 0 0 0 0 
0 0 0 0 0 0 0 0 
0.0114848 -2.79942e-08 0 0 -0.0114848 0 0 0 
0.0248201 -6.0499e-08 0 0 -0.0248201 0 0 0 
0.00766959 -1.82153e-08 0 0 -0.00766959 0 0 0 
0.0117805 -2.79788e-08 0 0 -0.0117805 0 0 0 
0 0 0 0 0 0 0 0 
0 0 0 0 0 0 0 0 
0.0110035 -2.61333e-08 0 0 -0.0110035 0 0 0 
0 0 0 0 0 0 0 0 
0 0 0 0 0 0 0 0 
0.00862901 -2.04939e-08 0 0 -0.00862901 0 0 0 
0 0 0 0 0 0 0 0 
0 0 0 0 0 0 0 0 
0.00421926 -1.00208e-08 0 0 -0.00421926 0 0 0 
0 0 0 0 0 0 0 0 
0 0 0 0 0 0 0 0 
0 0 0 0 0 0 0 0 
0.0053797 -1.27768e-08 0 0 -0.0053797 0 0 0 
0 0 0 0 0 0 0 0 
0.00694735 -1.73685e-08 0 0 -0.00694735 0 0 6.63405e-15 
0.00412884 -1.9612e-07 -1.04999e-10 -7.46508e-10 -0.00412884 0 0 0.390325 
0.00363231 -3.12379e-07 8.06991e-10 -2.11289e-09 -0.00363231 0 0 0.571181 
0.0026023 -1.23609e-07 0 0 -0.0026023 0 0 0 
0 0 0 0 0 0 0 0 
0 0 0 0 0 0 0 0 
0 0 0 0 0 0 0 0 
0.000694096 1.64848e-09 0 0 0.000694096 0 0 0 
0.00201135 2.45133e-09 0 0 0.00201135 0 0 0 
0 0 0 0 0 0 0 0 
0 0 0 0 0 0 0 0 
0 0 0 0 0 0 0 0 
0 0 0 0 0 0 0 0 
0 0 0 0 0 0 0 0 
0 0 0 0 0 0 0 0 
0.000520347 1.23583e-09 0 0 0.000520347 0 0 0 
0 0 0 0 0 0 0 0 
0 0 0 0 0 0 0 0 
0.000649425 1.54239e-09 0 0 0.000649425 0 0 0 
0 0 0 0 0 0 0 0 
0 0 0 0 0 0 0 0 
0 0 0 0 0 0 0 0 
0 0 0 0 0 0 0 0 
0 0 0 0 0 0 0 0 
0 0 0 0 0 0 0 0 
0 0 0 0 0 0 0 0 
0.00118772 2.89507e-09 0 0 0.00118772 0 0 0 
0.00118413 2.88633e-09 0 0 0.00118413 0 0 0 
0.000699786 1.70573e-09 -1.01723e-09 1.94123e-09 0.000699786 0 0 -0.139521 
0 0 0 0 0 0 0 0 
0 0 0 0 0 0 0 0 
0.000415209 1.01207e-09 0 0 0.000415209 0 0 0 
0 0 0 0 0 0 0 0 
1.19628e-05 -2.93884e-07 2.37294e-07 2.47406e-07 0 8.45899e-06 8.45899e-06 0.0183524 
1.16797e-05 -1.91891e-07 -1.01665e-07 -1.11412e-07 0 -8.25877e-06 -8.25877e-06 0.0255529 
0.000334431 -1.01413e-08 1.90625e-07 1.84468e-09 0 0.000334431 0 0.0278917 
0.00024845 -1.39203e-08 -1.41617e-07 -8.04836e-09 0 -0.00024845 0 0.0611586 
0.000231451 6.50656e-09 1.31927e-07 4.23672e-10 0 0.000231451 0 0.00283626 
0.000371662 -1.20292e-08 -2.11847e-07 -3.26416e-09 0 -0.000371662 0 0.0382854 
0.000309034 9.11014e-10 1.7615e-07 5.69471e-09 0 0.000309034 0 -0.00645724 
0.000310504 -3.48865e-09 -5.86591e-09 1.76987e-07 0 0 0.000310504 0.0028514 
0.000228065 -7.15705e-09 2.46237e-09 1.33418e-07 0 0 0.000228065 0.045516 
0.000202789 6.72485e-09 7.18058e-10 -1.18631e-07 0 0 -0.000202789 -0.00142484 
0.000309888 1.04691e-08 5.35875e-09 1.81285e-07 0 0 0.000309888 -0.0039 
0.00018862 -6.4821e-09 1.07513e-07 1.28557e-09 0 0.00018862 0 0.0295916 
9.9729e-05 -1.36951e-08 5.83414e-08 -4.00816e-09 0 9.9729e-05 0 0.0450156 
0.000116835 -2.22205e-08 -4.35342e-09 -6.65961e-08 0 0 -0.000116835 0.0851254 
0.000212632 1.41125e-09 1.212e-07 -2.31691e-10 0 0.000212632 0 0.00188377 
0.000221116 -2.14309e-08 -1.26036e-07 6.74259e-10 0 -0.000221116 0 0.0731592 
0.000277781 -1.89563e-08 -5.49077e-09 1.58335e-07 0 0 0.000277781 0.0668686 
0.000227781 2.16407e-09 -1.89356e-09 1.29835e-07 0 0 0.000227781 0.0019485 
0.000194334 -1.90578e-08 2.39052e-09 -1.1077e-07 0 0 -0.000194334 0.0469183 
0.000150977 2.34302e-09 -8.60569e-08 -6.84519e-09 0 -0.000150977 0 0.00117169 
0.000177529 -1.56109e-08 1.01192e-07 -2.92731e-09 0 0.000177529 0 0.0531679 
0.000155404 1.88103e-09 1.77353e-09 -8.85804e-08 0 0 -0.000155404 -0.00341497 
0.00016838 -3.43115e-09 9.85025e-08 -2.0042e-09 0 0.00016838 0 -0.000619789 
0.000196665 3.68796e-09 -1.91343e-09 1.15049e-07 0 0 0.000196665 -0.000940675 
0.000255012 1.7475e-09 -1.49182e-07 -2.28568e-09 0 -0.000255012 0 0.00124293 
0.000106301 3.18946e-10 2.17013e-09 -6.05916e-08 0 0 -0.000106301 0.000382662 
0.000117016 -1.08506e-09 -6.84542e-08 -1.84736e-10 0 -0.000117016 0 -0.000577561 
0.000208027 -1.35927e-08 5.36327e-09 1.21696e-07 0 0 0.000208027 0.0458357 
0.000155145 -1.10547e-08 1.17011e-09 -8.84325e-08 0 0 -0.000155145 0.0406525 
0.000144095 -4.43803e-09 -8.42957e-08 -5.57958e-09 0 -0.000144095 0 0.027996 
0.000236624 -1.00455e-09 -1.34875e-07 -1.17712e-08 0 -0.000236624 0 0.00255095 
0.000214274 -8.61703e-10 -1.57305e-10 6.26751e-08 0 0 0.000214274 -0.000318995 
9.93361e-05 -7.84844e-09 -1.12132e-10 5.66216e-08 0 0 9.93361e-05 0.0305683 
0.000228169 -2.39377e-08 2.67512e-09 -1.30056e-07 0 0 -0.000228169 0.0806666 
0.000111546 -1.40233e-08 -5.20759e-10 6.35811e-08 0 0 0.000111546 0.0490429 
0.000119674 -1.39245e-08 -6.82141e-08 1.35833e-09 0 -0.000119674 0 0.0486642 
0.000208895 2.58958e-09 5.42789e-10 -1.1907e-07 0 4.09589e-11 -0.000208895 -0.00165553 
0.000161193 1.18787e-09 -9.188e-08 3.7899e-09 0 -0.000161193 0 0.000598555 
0.00010648 -2.49587e-08 -6.06939e-08 1.90466e-09 0 -0.00010648 0 0.0747306 
8.892e-05 6.65123e-11 -1.93148e-09 5.06844e-08 0 0 8.892e-05 -0.000599851 
0.00024578 -1.92024e-09 1.40095e-07 5.0033e-09 0 0.00024578 0 0.0202057 
9.40865e-05 3.24008e-09 2.29521e-09 -5.36293e-08 0 0 -9.40865e-05 -0.0055816 
0.00017375 1.52813e-09 -9.90373e-08 -2.10512e-10 0 -0.00017375 0 -0.00122279 
0.000217769 -4.37502e-09 6.36691e-09 -1.24128e-07 0 0 -0.000217769 0.0169105 
0.000315881 -5.94484e-11 2.25065e-08 6.99149e-10 -6.00925e-07 0.00031588 0 -0.0229098 
0.000539661 1.87758e-11 9.83046e-09 -5.00451e-11 -3.66017e-05 0.000537861 -2.44865e-05 -0.0354222 
0.000173625 -3.06926e-11 2.79886e-09 -9.71174e-11 -1.90273e-06 0.00017351 -6.02062e-06 0 
0.000529626 -2.96084e-10 9.52501e-09 -5.00986e-10 -1.64327e-05 0.00052864 -2.78048e-05 -1.91767e-17 
7.3763e-05 -2.13857e-11 1.21595e-09 -1.37535e-11 -1.29704e-06 7.37469e-05 -8.34148e-07 0 
0 0 0 0 0 0 0 0 
0.000503977 -2.8986e-10 1.21507e-08 -5.91559e-10 -2.66656e-07 0.000503932 6.71257e-06 -0.00276422 
0.000217133 -2.74791e-11 4.02775e-09 -6.44796e-10 -8.30942e-06 0.000216931 4.29358e-06 -0.0264939 
0.000391394 -7.61843e-11 6.30932e-09 2.18927e-10 -4.72285e-06 0.00039113 1.35718e-05 -1.87425e-17 
0.000370052 -1.42377e-10 2.63662e-08 1.45301e-09 -1.76271e-07 0.000370052 0 -0.0295916 
8.80105e-05 -1.19294e-11 0 6.27075e-09 -1.67429e-07 0 8.80103e-05 -3.33401e-18 
0.000121237 -2.11368e-09 1.5192e-09 1.99569e-09 -8.22274e-06 5.50101e-06 0.000120833 0.00595284 
6.7646e-05 -1.19582e-11 3.7838e-11 1.09046e-09 -7.41325e-07 2.3457e-06 6.76013e-05 2.67753e-18 
2.98678e-05 2.76807e-10 2.02631e-10 5.37107e-10 -9.26712e-07 1.56803e-06 2.98122e-05 -0.00130175 
0.000305337 -3.17475e-10 -1.06201e-09 5.04195e-09 -5.369e-06 3.4529e-06 0.00030527 0.0136689 
0 0 0 0 0 0 0 0 
0.000232686 -2.9661e-12 -7.46661e-11 5.6054e-09 -1.23115e-07 -3.0992e-06 0.000232666 1.2325e-18 
0.000208128 -1.47178e-10 -7.60489e-11 3.84234e-09 -7.96481e-06 -4.11551e-06 0.000207935 -3.27227e-17 
0 0 0 0 0 0 0 0 
0.000190238 2.35225e-09 -1.10107e-09 1.35556e-08 -9.06179e-08 0 0.000190238 0.00282328 
0.00024298 1.85912e-09 -1.73159e-08 1.52164e-09 -4.6224e-07 -0.00024298 0 -0.00905333 
0.000199478 -2.45652e-10 -3.60986e-09 1.64341e-10 -1.35293e-05 -0.000198812 9.05107e-06 7.13617e-18 
0.000442472 3.916e-10 -7.12734e-09 5.50971e-10 -4.849e-06 -0.00044218 1.53432e-05 0.0113118 
0.000285745 -1.99199e-10 -5.1288e-09 4.40198e-10 -8.86584e-06 -0.000285213 1.50014e-05 0.00873381 
0 0 0 0 0 0 0 0 
0 0 0 0 0 0 0 0 
0.000371026 -4.72954e-12 -8.93799e-09 -1.19057e-10 -1.96311e-07 -0.000370993 -4.94177e-06 2.42019e-17 
0.000114203 -8.07589e-11 -2.10835e-09 -4.17291e-11 -4.3704e-06 -0.000114097 -2.25824e-06 -4.67467e-18 
0 0 0 0 0 0 0 0 
0.000334711 -3.7014e-10 -2.3848e-08 1.98347e-09 -1.59437e-07 -0.000334711 0 0.00317243 
0.000389392 6.50983e-10 1.28494e-10 -2.77455e-08 -7.40771e-07 0 -0.000389391 0.00028929 
0.00046168 -5.68548e-10 -3.80358e-10 -8.3548e-09 -3.13127e-05 -2.09482e-05 -0.00046014 2.20032e-17 
0.000250606 -1.6458e-08 -1.32537e-09 -3.81869e-09 -2.74636e-06 -8.69003e-06 -0.000250441 1.49374 
5.65601e-05 -2.59531e-10 4.51723e-10 -1.03669e-09 -1.75489e-06 -2.96935e-06 -5.64548e-05 -0.000784636 
0.000325064 -3.28782e-10 3.22936e-10 -5.35872e-09 -5.71587e-06 -3.67598e-06 -0.000324993 -0.0358469 
0 0 0 0 0 0 0 0 
0.000200531 -1.48964e-08 1.43439e-09 -4.80465e-09 -1.06102e-07 2.67091e-06 -0.000200513 1.2324 
0.000583191 -4.12406e-10 2.13095e-10 -1.07666e-08 -2.2318e-05 1.1532e-05 -0.00058265 -3.03854e-17 
0.000156149 -3.03943e-11 8.73424e-11 -2.51715e-09 -1.88421e-06 5.41456e-06 -0.000156044 -2.67749e-18 
0.000134307 -4.49069e-10 4.84719e-10 -9.56916e-09 -6.39758e-08 0 -0.000134307 -0.00324118 
0 0 0 0 0 0 0 0 
0 0 0 0 0 0 0 0 
0 0 0 0 0 0 0 0 
0 0 0 0 0 0 0 0 
0 0 0 0 0 0 0 0 
0 0 0 0 0 0 0 0 
0 0 0 0 0 0 0 0 
0 0 0 0 0 0 0 0 
0 0 0 0 0 0 0 0 
0 0 0 0 0 0 0 0 
0 0 0 0 0 0 0 0 
0 0 0 0 0 0 0 0 
0 0 0 0 0 0 0 0 
0 0 0 0 0 0 0 0 
0 0 0 0 0 0 0 0 
0 0 0 0 0 0 0 0 
0.000206133 -8.43512e-10 4.76027e-09 -1.27832e-10 -3.59536e-05 0.0002029 -5.44868e-06 2.94552e-17 
0 0 0 0 0 0 0 0 
0.000730442 -1.19623e-09 5.39465e-09 -4.37653e-10 -0.000157636 0.000710894 -5.76728e-05 0 
0.000597005 -1.9189e-09 1.02008e-08 -8.46388e-10 -0.000110003 0.000584773 -4.85202e-05 -3.3673e-16 
0.000709442 -1.80707e-09 1.34202e-08 -2.0449e-09 -0.000138305 0.000691223 -7.99419e-05 -0.00164524 
0.000739018 -1.12821e-09 5.07573e-09 -7.93722e-10 -0.000174679 0.000713285 -8.2819e-05 0.0524337 
0.000129817 -3.53983e-10 1.59754e-09 -2.40586e-10 -2.77849e-05 0.000125395 -1.88841e-05 -1.01704e-17 
0.00020242 -6.0977e-10 2.63524e-09 -3.62902e-10 -4.52273e-05 0.000195459 -2.69168e-05 0 
0.000188418 -4.97523e-11 2.20464e-09 -5.61818e-10 -4.38968e-05 0.000178947 -3.93967e-05 0.0273135 
0.000490144 -1.51677e-09 5.40292e-09 -9.88399e-10 -9.40679e-05 0.000480474 -2.31705e-05 0.0474793 
0.000149042 -4.23817e-10 1.67214e-09 -3.89637e-10 -3.57182e-05 0.000140924 -3.28375e-05 -1.82e-17 
0.000131048 -4.39449e-10 2.46193e-09 9.31693e-11 -2.30118e-05 0.000128919 4.87883e-06 -2.26169e-18 
0.000440916 -1.50526e-08 3.21655e-09 4.44722e-10 -9.24371e-05 0.000429063 4.20438e-05 1.64235 
0.000437866 -1.24455e-09 1.01294e-08 1.49243e-09 -7.71562e-05 0.000430711 1.61838e-05 0.03207 
0.000990383 -2.31753e-09 8.82161e-09 1.7805e-09 -0.000246983 0.000940134 0.000189751 -2.94586e-16 
0.00107682 -1.72987e-09 7.00659e-09 1.06089e-09 -0.000255365 0.00103432 0.000156609 -4.08054e-16 
0.000162839 -1.45036e-09 1.49704e-09 1.83158e-09 -3.70339e-05 0.000156383 2.62514e-05 -0.00678726 
0.000850796 -2.38551e-09 1.11711e-08 1.38271e-09 -0.000176387 0.000826007 0.000102239 -1.22953e-16 
0.000749336 -1.57274e-09 7.7346e-09 6.60798e-10 -0.000148793 0.000731749 6.25163e-05 -1.63446e-17 
0.000164983 -3.22928e-10 3.21751e-09 -1.41377e-09 -2.96174e-05 0.000162102 8.05719e-06 0.0325273 
0.000857471 -2.83064e-09 1.51016e-08 -1.06316e-09 -0.000167776 0.000831903 0.000122658 0.0334788 
5.2659e-05 -1.26723e-10 5.92406e-10 9.99259e-11 -1.08684e-05 5.08075e-05 8.5701e-06 0 
0.00043799 -2.95198e-09 9.46287e-10 4.76506e-09 -7.88918e-05 4.00689e-05 0.000428959 -0.0405476 
0.000451285 -7.63332e-10 3.7763e-10 3.1022e-09 -0.000107082 5.29748e-05 0.000435184 0 
0.000593163 2.34325e-09 -1.41899e-09 1.11243e-08 -0.000108091 3.8982e-05 0.000581927 0.0189647 
0.00022752 -8.28841e-10 3.10199e-10 4.23762e-09 -4.35611e-05 1.6303e-05 0.000222715 -2.26996e-18 
0.000873297 -1.98327e-09 5.54392e-10 9.77855e-09 -0.000173319 4.84486e-05 0.000854553 -3.01957e-17 
0.000422739 -1.71863e-10 -2.13338e-10 6.32984e-09 -8.77384e-05 3.31984e-05 0.000412199 0.034209 
0.000737165 -1.47342e-08 1.26653e-09 4.91501e-09 -0.000162195 0.000162744 0.000700442 1.90477 
0.000141416 -2.32338e-10 1.27841e-10 9.54803e-10 -3.31565e-05 1.8244e-05 0.000136258 -1.23273e-17 
0.000147381 -6.55277e-10 9.10004e-10 2.71077e-09 -2.63793e-05 5.4835e-06 0.000144897 -0.00420178 
0.0012238 -2.64042e-09 3.7255e-09 1.14656e-08 -0.000290169 0.000335322 0.00114063 -0.0189839 
0.000405849 -7.94599e-10 3.70767e-10 3.08185e-09 -8.77724e-05 9.30395e-05 0.000385166 -0.0725963 
0.000184905 -8.81194e-10 -4.84531e-10 3.75131e-09 -3.47083e-05 -1.10434e-05 0.000181283 -0.0191186 
0.00069193 -1.17038e-09 -5.78999e-10 4.75644e-09 -0.000164183 -8.12233e-05 0.000667244 1.95399e-16 
0.000656793 -1.20211e-09 -1.44125e-09 4.69344e-09 -0.000156197 -0.00018727 0.000609844 5.612e-18 
0.00029106 -4.47886e-10 -1.57523e-10 1.94168e-09 -6.52172e-05 -2.29372e-05 0.000282731 6.28905e-18 
0.000495341 -1.29808e-09 -1.32286e-09 5.14443e-09 -0.000117589 -0.000119834 0.00046602 -6.26004e-17 
0.000332822 -7.74197e-10 -7.40171e-10 3.56502e-09 -6.92206e-05 -6.61784e-05 0.000318747 -3.86166e-18 
0.000367802 -7.9293e-10 -3.31013e-10 3.90094e-09 -7.30117e-05 -3.04791e-05 0.000359192 0 
0.000202416 -1.79986e-09 5.60489e-10 3.30754e-09 -3.91911e-05 -1.95461e-05 0.000197622 -0.0103174 
0.000408304 -9.88941e-09 -7.07533e-10 2.71079e-08 -7.08913e-05 -4.3735e-06 0.000402079 0.155653 
0.000273536 -1.07557e-09 -1.24159e-09 6.44983e-09 -4.85115e-05 -1.94925e-05 0.000268493 0.0050003 
0.000369998 -1.61929e-09 -8.59646e-09 -2.4023e-09 -6.45348e-05 -0.000364195 9.78009e-06 -0.00757284 
0.000629992 -1.8923e-09 -7.48102e-09 1.50992e-09 -0.000151614 -0.00059939 0.000120977 -9.6894e-17 
0 0 0 0 0 0 0 0 
0.000240918 -7.74359e-10 -4.11647e-09 3.41555e-10 -4.4391e-05 -0.000235982 1.958e-05 -1.73317e-17 
0.000434273 -6.0271e-10 -8.36177e-09 8.53474e-10 -8.46608e-05 -0.00042312 4.8935e-05 0.00163802 
0 0 0 0 0 0 0 0 
0.00024672 -6.72754e-10 -3.03617e-09 4.5724e-10 -5.2806e-05 -0.000238316 3.58898e-05 -2.03408e-17 
0 0 0 0 0 0 0 0 
0.00058996 -9.04503e-09 -5.01137e-09 4.4677e-10 -0.000137447 -0.000560307 0.000123356 1.18393 
0.000109276 -2.41072e-10 -1.23134e-09 5.93802e-11 -2.09721e-05 -0.00010712 5.16579e-06 7.51476e-18 
0.000998269 -2.83868e-09 -1.11998e-08 2.60975e-09 -0.000239237 -0.000943892 0.000219942 -6.55199e-17 
0.000629571 -1.10875e-09 -1.20034e-08 -5.25027e-10 -0.000110552 -0.000619345 -2.34385e-05 -0.00862117 
0 0 0 0 0 0 0 0 
0.000283494 -2.45945e-10 -6.65287e-09 -1.11711e-09 -4.99544e-05 -0.000278861 -1.04781e-05 0.0204102 
0.0008277 -1.93685e-09 -7.37255e-09 -1.48803e-09 -0.000206413 -0.000785705 -0.000158582 1.84116e-17 
0 0 0 0 0 0 0 0 
0.000425492 -1.22585e-09 -5.1764e-09 -8.6894e-10 -9.67683e-05 -0.000408625 -6.85941e-05 5.1142e-18 
0.000394589 -1.10637e-09 -5.18103e-09 -6.41285e-10 -8.18063e-05 -0.000383092 -4.74174e-05 0 
0.000389134 -1.89527e-09 -3.89903e-09 8.47671e-10 -7.72689e-05 -0.000380001 -3.24646e-05 -0.0332172 
2.5216e-05 -8.64357e-11 -4.73081e-10 -2.35141e-11 -4.52673e-06 -2.47757e-05 -1.23146e-06 5.65486e-19 
0.000293372 -1.01848e-09 -4.63664e-09 -3.16354e-09 -5.74022e-05 -0.000284624 -4.19657e-05 0.00286195 
0.000592739 -1.42642e-09 -6.66824e-09 -1.12478e-09 -0.000122336 -0.000571899 -9.64667e-05 2.51888e-16 
0 0 0 0 0 0 0 0 
0 0 0 0 0 0 0 0 
2.85437e-05 -9.11391e-11 -3.28685e-11 -4.90664e-10 -5.20147e-06 -1.87586e-06 -2.8003e-05 6.16242e-19 
0.000185143 -6.67688e-10 -1.43529e-09 -3.36308e-09 -3.54476e-05 -1.32665e-05 -0.000181233 0.0110148 
0.000709725 -1.77666e-08 -2.10544e-09 -4.57667e-09 -0.000140856 -3.9374e-05 -0.000694492 2.09145 
0.000726209 -3.21567e-09 -4.24956e-09 -9.88041e-09 -0.000150723 -5.70304e-05 -0.000708103 0.0216629 
0.000869406 -1.9482e-09 -3.66394e-09 -8.86527e-09 -0.000191292 -0.000191939 -0.000826096 -0.00505373 
0 0 0 0 0 0 0 0 
0.000498219 -1.70399e-09 -3.54212e-10 -9.35977e-09 -8.91747e-05 -1.85369e-05 -0.000489823 -3.39043e-17 
0 0 0 0 0 0 0 0 
0 0 0 0 0 0 0 0 
7.86779e-05 -3.09272e-10 9.84036e-11 -1.61534e-09 -1.47685e-05 4.69902e-06 -7.71364e-05 -4.12493e-18 
0.00144314 -2.44102e-09 1.2076e-09 -9.92038e-09 -0.000342432 0.000169405 -0.00139165 -1.16331e-15 
0.00032561 -5.95956e-10 7.14513e-10 -2.32681e-09 -7.74357e-05 9.28405e-05 -0.000302335 -1.403e-17 
0 0 0 0 0 0 0 0 
8.3759e-05 -2.19497e-10 2.23687e-10 -8.69891e-10 -1.98836e-05 2.02632e-05 -7.88011e-05 -5.86879e-18 
0.000145898 -3.39382e-10 3.24467e-10 -1.56279e-09 -3.0344e-05 2.90104e-05 -0.000139728 -1.93083e-18 
0.000358125 -1.80087e-10 6.5685e-10 -3.89024e-09 -7.10906e-05 2.96771e-05 -0.000349741 -0.0202789 
0.00123721 4.99054e-10 3.30998e-09 -2.18308e-08 -0.000239544 0.00011947 -0.0012079 -0.00100516 
0.000355891 -3.44273e-09 1.05162e-09 -2.45362e-08 -6.1791e-05 3.81208e-06 -0.000350465 0.00851415 
0.00102829 -5.6491e-09 -4.53849e-10 -2.43283e-08 -0.000182368 7.32773e-05 -0.00100934 -0.0124745 
0.000538728 -2.10567e-10 2.27864e-09 -3.53579e-11 -3.03115e-05 0.000506224 0.000181784 -0.0141747 
0.00173879 -3.908e-10 7.64886e-09 2.3488e-09 -8.48242e-05 0.0016602 0.000509813 6.32789e-17 
0 0 0 0 0 0 0 0 
0 0 0 0 0 0 0 0 
0.000252122 -8.7349e-12 7.03406e-09 5.47514e-10 -3.12141e-07 0.000251362 1.95654e-05 7.71709e-18 
0.00115588 -2.94621e-10 3.97333e-09 2.06211e-09 -7.59092e-05 0.00102373 0.000531302 1.33537e-16 
0.00042894 -8.9884e-10 2.39033e-09 2.96274e-09 -2.22222e-05 0.000394625 0.000166633 0.0185608 
0.00425365 -9.42778e-10 1.89087e-08 1.09551e-08 -0.00018334 0.00367713 0.00213041 -1.0751e-15 
0.000325299 -1.33032e-10 2.41242e-09 9.4997e-10 -1.6669e-05 0.000302279 0.000119033 0 
0 0 0 0 0 0 0 0 
0.000246012 -6.81339e-11 2.40757e-09 9.15743e-10 -6.50501e-06 0.00022986 8.74294e-05 -1.0309e-18 
0 0 0 0 0 0 0 0 
0 0 0 0 0 0 0 0 
0.000183485 -2.27908e-11 3.0255e-09 4.98176e-10 -1.36377e-06 0.000181042 2.98101e-05 3.8121e-17 
0.000175776 -5.89232e-09 4.17395e-09 1.30483e-09 -6.39008e-07 0.000173553 2.78604e-05 0.461188 
0.00065224 -2.39587e-10 4.382e-09 3.12084e-09 -2.90187e-05 0.000530748 0.000377997 -1.63477e-16 
0 0 0 0 0 0 0 0 
0.000275115 -5.18102e-11 1.36416e-09 5.25747e-10 -9.74361e-06 0.000256549 9.88739e-05 -4.0613e-18 
0 0 0 0 0 0 0 0 
0 0 0 0 0 0 0 0 
0.000394602 -1.05211e-10 4.25359e-09 -1.00874e-09 -9.4942e-06 0.000383842 -9.10286e-05 -7.79501e-18 
0.000814826 -2.22149e-09 8.74891e-09 -2.26914e-09 -1.62141e-05 0.000796655 -0.000170348 -0.00101312 
0 0 0 0 0 0 0 0 
0.00662749 -3.40105e-09 4.37587e-08 -2.59129e-08 -0.000442235 0.0056899 -0.00336943 -2.15656e-15 
0.000487042 -5.81666e-10 8.11437e-09 -8.39562e-10 -1.63728e-06 0.000482797 -6.41367e-05 -0.000617019 
0.00425349 -6.07248e-10 3.40718e-08 -8.94894e-09 -7.33105e-05 0.00411334 -0.00108037 2.06484e-15 
0.000355845 -9.78058e-10 3.41392e-09 -1.5867e-09 -9.32263e-06 0.000334289 -0.000121614 -0.00845144 
0.0012535 4.65186e-10 1.11382e-08 -6.46765e-09 -4.76974e-05 0.00108181 -0.000631408 0.017092 
0.000183457 -8.19741e-11 1.58086e-09 -1.00853e-09 -8.01228e-06 0.000154516 -9.85756e-05 -8.44306e-18 
0 0 0 0 0 0 0 0 
0.00194509 -3.94624e-10 7.44958e-09 -2.53912e-09 -9.74047e-05 0.00183877 -0.00062673 -6.82286e-16 
0.00096308 -2.20894e-10 3.67395e-09 -1.33956e-09 -5.43148e-05 0.000903373 -0.000329379 3.186e-17 
0.000586826 9.73264e-10 1.13325e-08 -2.24495e-09 -1.6034e-06 0.000585284 -4.24914e-05 0.0404791 
0 0 0 0 0 0 0 0 
0.00657224 -1.67521e-09 2.25919e-08 -1.17249e-08 -0.000431618 0.00582082 -0.00302093 -2.8488e-15 
0 0 0 0 0 0 0 0 
0.00465449 -2.34483e-10 1.3662e-09 -4.57647e-09 -0.00022824 0.00132983 -0.00445463 2.52245e-16 
0.00071368 -1.09642e-10 1.37428e-09 -7.64665e-09 -1.80979e-05 0.000211574 -0.000681357 0.0131623 
0.000690106 -4.91505e-09 2.28405e-09 -1.31137e-08 -8.44427e-06 9.24706e-05 -0.000683831 0.734225 
0.00102527 -5.36583e-10 5.06032e-09 -5.93176e-09 -7.03924e-05 0.000663845 -0.000778166 7.25252e-16 
0.0018929 -4.37343e-10 2.94492e-09 -6.97426e-09 -0.000109169 0.000735108 -0.00174091 8.08591e-17 
0 0 0 0 0 0 0 0 
0 0 0 0 0 0 0 0 
0.000419897 6.87083e-10 6.66385e-10 -3.36214e-09 -1.71702e-05 0.00016162 -0.000387166 0.0495989 
0 0 0 0 0 0 0 0 
0.00128672 -1.03152e-09 -2.07424e-09 -1.50809e-08 -2.70673e-05 0.000348999 -0.00123819 1.85908 
0 0 0 0 0 0 0 0 
0.00122937 -3.62833e-09 1.16513e-08 -1.8252e-08 -1.30984e-05 0.000274954 -0.00119816 1.34135 
0 0 0 0 0 0 0 0 
0 0 0 0 0 0 0 0 
0.00116828 -2.465e-09 4.69343e-09 -1.82193e-08 -1.80345e-05 0.000358604 -0.00111173 -0.00153313 
0 0 0 0 0 0 0 0 
7.60616e-05 1.9822e-13 -1.84427e-12 -4.42815e-10 3.40477e-08 -3.16784e-07 -7.60609e-05 -1.48375e-17 
0.000407666 -2.08452e-10 -1.69261e-09 -3.49578e-09 -1.52627e-05 -0.000103703 -0.00039396 0.0693114 
0.000150033 1.40537e-09 -1.32908e-09 -2.44584e-09 -1.05937e-06 -1.94871e-05 -0.000148759 0.000386084 
0.000414022 -9.29422e-11 -1.11025e-09 -4.37664e-09 -8.52042e-06 -0.000101782 -0.000401226 -7.91896e-17 
0.000737231 -7.09723e-09 -3.38145e-09 -7.18347e-09 -1.83357e-05 -0.000199943 -0.000709363 0.995822 
0.000700863 6.01218e-10 -1.35197e-09 -3.45736e-09 -2.8863e-05 -0.00027939 -0.000642119 0.117185 
0.000540718 -2.79318e-10 -2.29902e-09 -3.42288e-09 -3.65452e-05 -0.000300798 -0.00044784 -1.13019e-17 
0 0 0 0 0 0 0 0 
0.000625347 -1.37851e-10 -1.91808e-09 -1.05445e-08 -8.04264e-06 -0.000111907 -0.0006152 -1.00795e-16 
0.000990624 -2.79241e-10 -4.01036e-09 -9.52708e-09 -2.67514e-05 -0.000384193 -0.000912697 -2.48261e-17 
0 0 0 0 0 0 0 0 
0.000419216 -1.03983e-09 -1.46474e-09 -2.94643e-09 -1.71423e-05 -0.000161358 -0.000386538 -0.151941 
0.000522686 -4.92204e-10 -1.70217e-09 -3.12207e-09 -2.57041e-05 -0.000283166 -0.000438585 -0.00342188 
0 0 0 0 0 0 0 0 
0 0 0 0 0 0 0 0 
0.00025593 2.44499e-10 3.00046e-09 -4.76824e-09 -1.10911e-06 -2.6935e-05 -0.000254506 0.0754605 
0 0 0 0 0 0 0 0 
0 0 0 0 0 0 0 0 
0.000139511 -5.94256e-11 -6.86833e-10 -6.60496e-10 -8.68354e-06 -0.000100363 -9.65147e-05 -1.89337e-17 
0 0 0 0 0 0 0 0 
0.000625707 -8.0812e-10 -6.04723e-09 -3.25311e-09 -1.84889e-05 -0.0005973 -0.000185473 0.0495187 
0.000394134 -6.35872e-11 -6.64583e-09 -1.2089e-09 -3.71002e-06 -0.000387753 -7.05336e-05 2.51998e-18 
0.000323957 -1.67346e-10 -2.05073e-09 -1.3774e-09 -2.1895e-05 -0.000268312 -0.000180215 -9.04152e-17 
0.00125793 -5.24418e-10 -8.51578e-09 -4.68986e-09 -6.77575e-05 -0.00110028 -0.000605954 3.5715e-16 
0.00067405 -2.62988e-10 -5.96474e-09 -3.48138e-09 -2.56485e-05 -0.000581726 -0.00033953 0 
0 0 0 0 0 0 0 0 
0 0 0 0 0 0 0 0 
0 0 0 0 0 0 0 0 
0 0 0 0 0 0 0 0 
0.000464151 -5.19836e-11 -3.9328e-09 -7.4884e-10 -6.02634e-06 -0.000455921 -8.68113e-05 4.0056e-17 
0.000472027 -4.19581e-09 -7.82843e-09 -8.02684e-10 -3.67098e-06 -0.000463126 -9.11638e-05 0.715683 
0.00161866 -1.81812e-09 -3.82239e-08 -9.76577e-10 -4.45422e-08 -0.00161851 -2.1906e-05 0.0260134 
0 0 0 0 0 0 0 0 
0 0 0 0 0 0 0 0 
7.87497e-05 -9.85433e-10 -2.00374e-09 5.47545e-10 -9.41888e-08 -7.84418e-05 -6.9568e-06 0.0290553 
0.000141887 0 -1.06415e-09 6.77495e-12 1.76439e-23 -0.000141884 9.03308e-07 0 
0.000321049 -1.90234e-11 -8.95709e-09 6.97198e-10 -6.79799e-07 -0.000320081 2.49143e-05 3.31834e-17 
0.000465101 -5.4349e-11 -4.30221e-09 7.69144e-10 -5.78338e-06 -0.000457806 8.1846e-05 -1.8384e-17 
0.00107202 -2.83254e-10 -1.01364e-08 4.40712e-09 -2.74636e-05 -0.000982796 0.000427302 0 
3.34324e-05 -9.57783e-12 -4.69497e-10 1.82198e-10 -6.35714e-07 -3.11622e-05 1.20932e-05 0 
0 0 0 0 0 0 0 0 
0 0 0 0 0 0 0 0 
0.00049424 -1.11143e-10 -8.00612e-09 1.83726e-09 -6.68671e-06 -0.000481675 0.000110535 -1.97486e-16 
0.000310681 -8.88062e-11 -2.87957e-09 1.38904e-09 -8.62652e-06 -0.000279718 0.00013493 0 
0.00021439 -7.11671e-11 -2.02259e-09 9.36147e-10 -6.84235e-06 -0.000194462 9.00057e-05 1.24577e-17 
0.000221593 1.06591e-09 -1.47578e-09 6.47245e-10 -7.84808e-06 -0.000206639 7.96382e-05 0.0579208 
0 0 0 0 0 0 0 0 
0.00223031 -1.01909e-08 -1.4418e-08 9.64046e-09 -0.000104203 -0.0020314 0.000914788 3.48236 
0.000334383 -1.34258e-09 -1.69688e-09 2.32558e-09 -1.96733e-05 -0.000300445 0.000145456 0.079104 
0.000296209 -5.5204e-09 -8.3662e-09 -5.29348e-10 -7.28783e-07 -0.000294621 3.06224e-05 0.230198 
3.21845e-05 -6.09492e-12 -3.74851e-10 1.34007e-10 -4.92707e-07 -3.03025e-05 1.0833e-05 1.74575e-18 
0 0 0 0 0 0 0 0 
0.00725176 -1.6216e-09 -9.72506e-09 2.7082e-08 -0.00040802 -0.00244698 0.00681424 1.39103e-15 
0.000321433 -9.334e-11 -7.9277e-10 2.4977e-09 -1.14419e-05 -9.71803e-05 0.000306176 -3.38845e-16 
0.00237399 -6.60561e-09 -9.6401e-09 2.12758e-08 -5.91241e-05 -0.00055695 0.00230697 2.96168 
0.000153336 -1.44115e-09 -9.07668e-10 2.90638e-09 -1.05372e-06 -1.42606e-05 0.000152668 0.024472 
0 0 0 0 0 0 0 0 
0.00057482 -1.46514e-10 -1.02548e-09 1.97593e-09 -3.77495e-05 -0.000264216 0.0005091 2.22562e-17 
0 0 0 0 0 0 0 0 
0.00177428 -5.84987e-10 -5.58044e-09 1.09206e-08 -8.45374e-05 -0.00080644 0.00157816 -7.9892e-16 
0.00129824 -4.73491e-10 -3.79126e-09 9.62776e-09 -5.9345e-05 -0.000475177 0.0012067 3.46451e-16 
0.000534431 -1.72441e-10 -1.58089e-09 3.93606e-09 -2.17088e-05 -0.00019902 0.000495516 0 
0.00268864 -6.32618e-10 -1.00081e-08 2.63122e-08 -6.04043e-05 -0.000955602 0.00251237 3.16722e-15 
0.000238294 -5.47134e-11 -7.86609e-10 2.38773e-09 -5.18496e-06 -7.45436e-05 0.000226275 -1.30976e-16 
0.00113755 -2.16533e-10 -3.19109e-09 1.21495e-08 -1.96058e-05 -0.000288935 0.00110007 0 
0 0 0 0 0 0 0 0 
0 0 0 0 0 0 0 0 
0.00151775 -4.46728e-10 -3.76254e-09 1.89402e-08 -3.51026e-05 -0.00029565 0.00148826 -1.52042e-15 
0.000152939 -1.40586e-11 -6.27325e-10 3.73201e-09 -5.68151e-07 -2.53521e-05 0.000150822 1.39637e-17 
0 0 0 0 0 0 0 0 
0.000744649 -1.67363e-10 1.0059e-09 3.27569e-09 -3.63266e-05 0.000218332 0.000710995 -9.37463e-18 
0.00108155 -5.23576e-09 5.22601e-09 1.67779e-08 -7.66235e-06 0.000213037 0.00106033 0.602517 
0.000170529 -4.17451e-11 3.81002e-10 2.14775e-09 -3.26297e-06 2.97807e-05 0.000167877 3.37596e-17 
0.00256521 -1.43379e-09 7.30016e-09 3.18086e-08 -5.93281e-05 0.00049969 0.00251538 -0.0832143 
9.70412e-05 -4.15029e-11 5.01205e-10 8.58728e-10 -4.04708e-06 4.88741e-05 8.37373e-05 -1.05292e-18 
0 0 0 0 0 0 0 0 
0 0 0 0 0 0 0 0 
0 0 0 0 0 0 0 0 
0.000285859 -3.30315e-10 3.83877e-10 4.79093e-09 -3.99365e-06 7.26114e-05 0.000276454 0.0762991 
0.000574624 -1.88189e-10 2.24713e-09 5.63244e-09 -1.78237e-05 0.00021283 0.000533459 1.63627e-17 
8.88271e-05 -2.80607e-11 2.03118e-10 7.01637e-10 -3.40985e-06 2.46823e-05 8.52609e-05 -1.3121e-18 
0.000956659 -4.27464e-10 5.25912e-09 8.24358e-09 -4.1781e-05 0.000514035 0.000805741 0 
0.000390502 2.18409e-09 5.13398e-10 3.25727e-09 -1.78505e-05 0.000142929 0.000362966 0.112434 
0.000772709 -6.95344e-10 2.23451e-09 5.66803e-09 -4.45645e-05 0.000300082 0.000710664 -0.00686004 
0.000170866 -1.82934e-11 7.97857e-10 4.96824e-09 -6.21179e-07 2.70924e-05 0.000168704 9.38625e-17 
0.00054412 -1.31868e-10 1.2422e-09 5.14539e-09 -1.35513e-05 0.000127654 0.000528761 8.8769e-18 
0.000890323 -2.26936e-10 1.58834e-09 3.06047e-09 -5.84702e-05 0.000409238 0.000788531 0 
0.0002395 -3.09516e-09 2.26381e-09 -7.18747e-08 0 0 -0.0002395 0.00676388 
0 0 0 0 0 0 0 0 
0.000512554 -1.64601e-09 1.35902e-08 1.09701e-09 0 0.000509564 5.52739e-05 -0.0115535 
0.000926059 -8.37508e-09 1.79212e-08 1.69175e-08 0 0.000698593 0.000607909 0.483058 
0.00147904 0 3.32747e-08 3.54787e-08 0 0.00101179 0.00107881 -1.7073e-16 
0.000389636 0 1.2534e-08 2.66357e-09 0 0.000381125 8.0992e-05 0 
0.00134513 -5.58285e-09 5.71993e-09 -4.38848e-08 0 0.000212606 -0.00132823 0.400108 
0.000628362 0 1.43376e-08 -1.48819e-08 0 0.000435966 -0.000452517 1.31331e-18 
0.000244915 0 7.90033e-09 -1.5684e-09 0 0.000240227 -4.76907e-05 -2.62662e-18 
0.000700294 -5.87488e-09 1.36258e-08 -1.40124e-08 0 0.000312616 -0.000626644 0.951872 
0.000421597 -8.94565e-10 9.66207e-09 -5.69714e-09 0 0.000369986 -0.000202124 0.0192226 
0.000519681 -3.96002e-10 9.23176e-11 -8.38321e-09 0 -3.32295e-05 -0.000518618 0.0359171 
0 0 0 0 0 0 0 0 
0 0 0 0 0 0 0 0 
0.00027949 0 -6.07117e-09 -4.28641e-09 0 -0.000228319 -0.000161199 -3.24855e-18 
0.00044903 0 -1.01021e-08 -1.07712e-08 0 -0.000307176 -0.000327522 -2.0028e-17 
0.00060004 -6.97128e-10 -1.94658e-08 -3.33313e-09 0 -0.000586933 -0.000124728 -0.00388066 
0.00109351 0 -5.68405e-09 3.55102e-08 0 -0.000172836 0.00107977 7.77479e-16 
0.00180815 -3.15252e-09 -4.13347e-08 4.2749e-08 0 -0.00125452 0.00130215 0.633267 
0.000502044 -1.38693e-09 -1.6459e-08 1.88306e-09 0 -0.000492434 9.77596e-05 -0.00179891 
0.0011016 -9.6666e-09 -8.52628e-09 2.80925e-08 0 -0.000389515 0.00103044 0.619796 
0.00124572 0 -2.73138e-08 1.87402e-08 0 -0.00102719 0.000704764 -2.14404e-16 
0.000707185 6.10484e-10 -2.05667e-09 -2.15229e-09 0 -0.000706656 2.73256e-05 -0.274526 
0 0 0 0 0 0 0 0 
0.0013415 -1.52682e-08 1.41571e-08 -2.23771e-08 -0.000670105 0.000621337 -0.000982104 0 
0.00213599 -3.63265e-08 3.427e-08 8.23413e-09 -0.00106697 0.00181 0.000384639 1.40279 
2.07592e-05 -2.3627e-10 5.93297e-11 4.05439e-10 -1.03696e-05 2.60391e-06 1.77943e-05 4.73898e-19 
0.00111691 -1.14342e-08 -1.93334e-08 1.21322e-08 -0.00055792 -0.000849137 0.000463886 0.0128477 
0.000342745 -3.3823e-09 -5.11283e-09 -4.88595e-09 -0.000171207 -0.000223989 -0.000194913 0.0173075 
0 0 0 0 0 0 0 0 
0 0 0 0 0 0 0 0 
0 0 0 0 0 0 0 0 
0 0 0 0 0 0 0 0 
0 0 0 0 0 0 0 0 
0 0 0 0 0 0 0 0 
0 0 0 0 0 0 0 0 
0 0 0 0 0 0 0 0 
0 0 0 0 0 0 0 0 
0 0 0 0 0 0 0 0 
0 0 0 0 0 0 0 0 
0 0 0 0 0 0 0 0 
0 0 0 0 0 0 0 0 
0 0 0 0 0 0 0 0 
0 0 0 0 0 0 0 0 
0 0 0 0 0 0 0 0 
0 0 0 0 0 0 0 0 
0 0 0 0 0 0 0 0 
0 0 0 0 0 0 0 0 
0.0221427 3.55913e-09 2.20141e-08 9.62239e-09 0.00324484 0.0200701 0.00877268 -5.04022e-15 
0 0 0 0 0 0 0 0 
0 0 0 0 0 0 0 0 
0 0 0 0 0 0 0 0 
0 0 0 0 0 0 0 0 
0.000463291 7.44678e-11 4.91699e-10 1.04489e-10 6.78919e-05 0.000448279 9.52625e-05 3.93767e-17 
0 0 0 0 0 0 0 0 
0 0 0 0 0 0 0 0 
0 0 0 0 0 0 0 0 
0 0 0 0 0 0 0 0 
0 0 0 0 0 0 0 0 
0 0 0 0 0 0 0 0 
0 0 0 0 0 0 0 0 
0 0 0 0 0 0 0 0 
0 0 0 0 0 0 0 0 
0 0 0 0 0 0 0 0 
0 0 0 0 0 0 0 0 
0 0 0 0 0 0 0 0 
0 0 0 0 0 0 0 0 
0 0 0 0 0 0 0 0 
0 0 0 0 0 0 0 0 
0 0 0 0 0 0 0 0 
0 0 0 0 0 0 0 0 
0 0 0 0 0 0 0 0 
0 0 0 0 0 0 0 0 
0 0 0 0 0 0 0 0 
0 0 0 0 0 0 0 0 
0 0 0 0 0 0 0 0 
0 0 0 0 0 0 0 0 
0 0 0 0 0 0 0 0 
0 0 0 0 0 0 0 0 
0 0 0 0 0 0 0 0 
0 0 0 0 0 0 0 0 
0 0 0 0 0 0 0 0 
0 0 0 0 0 0 0 0 
0 0 0 0 0 0 0 0 
0 0 0 0 0 0 0 0 
0 0 0 0 0 0 0 0 
0 0 0 0 0 0 0 0 
0 0 0 0 0 0 0 0 
0 0 0 0 0 0 0 0 
0 0 0 0 0 0 0 0 
0 0 0 0 0 0 0 0 
0 0 0 0 0 0 0 0 
0 0 0 0 0 0 0 0 