ITEM: TIMESTEP
220
ITEM: NUMBER OF SURFS
6916
ITEM: BOX BOUNDS oo rr rr
-0.35 0.35
-0.25 0.25
-0.25 0.25
ITEM: SURFS f_save[1] f_save[2] f_save[3] f_save[4] f_save[5] f_save[6] f_save[7] f_save[8] 
0.00540356 -4.05436e-08 -6.88658e-10 -1.82107e-09 -0.00540356 0 0 3.20025 
0 0 0 0 0 0 0 0 
0 0 0 0 0 0 0 0 
0 0 0 0 0 0 0 0 
0 0 0 0 0 0 0 0 
0.00958818 -2.33712e-08 0 0 -0.00958818 0 0 0 
0 0 0 0 0 0 0 0 
0.0105532 -2.50639e-08 0 0 -0.0105532 0 0 0 
0.00751981 -1.78596e-08 0 0 -0.00751981 0 0 0 
0 0 0 0 0 0 0 0 
0 0 0 0 0 0 0 0 
0.0104407 -2.54492e-08 0 0 -0.0104407 0 0 0 
0.0225637 -5.49991e-08 0 0 -0.0225637 0 0 0 
0.00697236 -1.65594e-08 0 0 -0.00697236 0 0 0 
0.0107095 -2.54353e-08 0 0 -0.0107095 0 0 0 
0 0 0 0 0 0 0 0 
0 0 0 0 0 0 0 0 
0.0100032 -2.37575e-08 0 0 -0.0100032 0 0 0 
0 0 0 0 0 0 0 0 
0 0 0 0 0 0 0 0 
0.00784455 -1.86309e-08 0 0 -0.00784455 0 0 0 
0 0 0 0 0 0 0 0 
0 0 0 0 0 0 0 0 
0.00383569 -9.10979e-09 0 0 -0.00383569 0 0 0 
0 0 0 0 0 0 0 0 
0 0 0 0 0 0 0 0 
0 0 0 0 0 0 0 0 
0.00489064 -1.16153e-08 0 0 -0.00489064 0 0 0 
0 0 0 0 0 0 0 0 
0.00631577 -1.57895e-08 0 0 -0.00631577 0 0 6.03096e-15 
0.00375349 -1.78291e-07 -9.54536e-11 -6.78644e-10 -0.00375349 0 0 0.354841 
0.0033021 -2.83981e-07 7.33628e-10 -1.92081e-09 -0.0033021 0 0 0.519256 
0.00236573 -1.12372e-07 0 0 -0.00236573 0 0 0 
0.0101327 -2.53318e-08 0 0 -0.0101327 0 0 0 
0 0 0 0 0 0 0 0 
0.000616251 1.4636e-09 0 0 0.000616251 0 0 0 
0.000630996 1.49862e-09 0 0 0.000630996 0 0 0 
0.0018285 2.22848e-09 0 0 0.0018285 0 0 0 
0 0 0 0 0 0 0 0 
0 0 0 0 0 0 0 0 
0 0 0 0 0 0 0 0 
0 0 0 0 0 0 0 0 
0 0 0 0 0 0 0 0 
0 0 0 0 0 0 0 0 
0.000473042 1.12348e-09 0 0 0.000473042 0 0 0 
0 0 0 0 0 0 0 0 
0 0 0 0 0 0 0 0 
0.000590387 1.40217e-09 0 0 0.000590387 0 0 0 
0 0 0 0 0 0 0 0 
0 0 0 0 0 0 0 0 
0 0 0 0 0 0 0 0 
0 0 0 0 0 0 0 0 
0 0 0 0 0 0 0 0 
0 0 0 0 0 0 0 0 
0 0 0 0 0 0 0 0 
0.00107975 2.63188e-09 0 0 0.00107975 0 0 0 
0.00107649 2.62393e-09 0 0 0.00107649 0 0 0 
0.000636169 1.55066e-09 -9.24756e-10 1.76475e-09 0.000636169 0 0 -0.126838 
0 0 0 0 0 0 0 0 
0 0 0 0 0 0 0 0 
0.000377463 9.20068e-10 0 0 0.000377463 0 0 0 
0 0 0 0 0 0 0 0 
1.20978e-05 -2.80552e-07 2.40582e-07 2.49587e-07 0 8.55444e-06 8.55444e-06 0.0174791 
1.18444e-05 -1.74446e-07 -1.0361e-07 -1.12471e-07 0 -8.37525e-06 -8.37525e-06 0.0232299 
0.000304028 -9.21932e-09 1.73296e-07 1.67699e-09 0 0.000304028 0 0.0253561 
0.000225864 -1.26548e-08 -1.28743e-07 -7.31669e-09 0 -0.000225864 0 0.0555987 
0.00023277 5.76737e-09 1.32679e-07 -7.81744e-10 0 0.00023277 0 0.00227053 
0.000340084 -1.09356e-08 -1.93848e-07 -2.96742e-09 0 -0.000340084 0 0.0348049 
0.00029787 -3.65288e-10 1.69786e-07 7.31169e-09 0 0.00029787 0 -0.00409718 
0.000309037 -3.1715e-09 -5.33265e-09 1.76151e-07 0 0 0.000309037 0.00259218 
0.000279392 -5.12083e-09 2.1871e-09 1.63444e-07 0 0 0.000279392 0.041374 
0.000236591 7.24536e-09 -1.25345e-09 -1.38406e-07 0 0 -0.000236591 -0.000380213 
0.000298569 9.85697e-09 5.27336e-09 1.74663e-07 0 0 0.000298569 -0.00282343 
0.000176588 -5.89282e-09 1.00655e-07 1.1687e-09 0 0.000176588 0 0.0269015 
9.06627e-05 -1.24501e-08 5.30377e-08 -3.64378e-09 0 9.06627e-05 0 0.0409233 
0.000115543 -2.02005e-08 -3.95765e-09 -6.58593e-08 0 0 -0.000115543 0.0773867 
0.000193302 1.28296e-09 1.10182e-07 -2.10628e-10 0 0.000193302 0 0.00171252 
0.000201015 -1.94826e-08 -1.14578e-07 6.12963e-10 0 -0.000201015 0 0.0665083 
0.000290105 -1.74154e-08 -4.9383e-09 1.6536e-07 0 0 0.000290105 0.0607194 
0.000217374 5.0353e-09 -3.17351e-09 1.23903e-07 0 0 0.000217374 0.00393561 
0.000185059 -1.49912e-08 2.42386e-09 -1.05483e-07 0 0 -0.000185059 0.0434868 
0.000181757 1.62672e-09 -1.03602e-07 -7.02028e-09 0 -0.000181757 0 0.00124291 
0.000164106 -1.33639e-08 9.35402e-08 -2.47428e-09 0 0.000164106 0 0.0487429 
0.000147236 1.53964e-09 3.2054e-09 -8.39245e-08 0 0 -0.000147236 -0.00331057 
0.000176923 -8.62294e-09 1.035e-07 -4.26155e-09 0 0.000176923 0 0.0184671 
0.000183146 3.35269e-09 -1.73948e-09 1.0714e-07 0 0 0.000183146 -0.000855159 
0.00023319 2.81164e-09 -1.36416e-07 -1.52086e-09 0 -0.00023319 0 0.00113455 
0.000111391 3.60736e-09 -2.16299e-09 -6.34931e-08 0 0 -0.000111391 0.000357284 
0.000147551 7.04559e-10 -8.63174e-08 2.74591e-10 0 -0.000147551 0 -0.0017168 
0.000199376 -1.2357e-08 4.8757e-09 1.16635e-07 0 0 0.000199376 0.0416688 
0.000159589 -7.84061e-09 1.88775e-09 -9.09658e-08 0 0 -0.000159589 0.0375235 
0.000149563 -2.49614e-09 -8.74943e-08 -6.8597e-09 0 -0.000149563 0 0.0255962 
0.000215112 -9.13228e-10 -1.22614e-07 -1.07011e-08 0 -0.000215112 0 0.00231904 
0.000194794 -7.83366e-10 -1.43005e-10 5.69774e-08 0 0 0.000194794 -0.000289996 
9.84764e-05 -7.13495e-09 -1.01938e-10 5.61315e-08 0 0 9.84764e-05 0.0277894 
0.000207427 -2.17616e-08 2.43192e-09 -1.18233e-07 0 0 -0.000207427 0.0733333 
0.000101405 -1.27485e-08 -4.73417e-10 5.7801e-08 0 0 0.000101405 0.0445844 
0.000111441 -1.26586e-08 -6.35211e-08 1.23485e-09 0 -0.000111441 0 0.0442402 
0.000189905 2.35416e-09 4.93445e-10 -1.08246e-07 0 3.72353e-11 -0.000189905 -0.00150503 
0.000199194 1.79314e-09 -1.1354e-07 6.77812e-09 0 -0.000199194 0 -0.000497295 
9.68004e-05 -2.26898e-08 -5.51762e-08 1.73151e-09 0 -9.68004e-05 0 0.0679369 
8.08364e-05 6.04658e-11 -1.75589e-09 4.60767e-08 0 0 8.08364e-05 -0.000545319 
0.00024778 -2.05308e-09 1.41235e-07 4.54155e-09 0 0.00024778 0 0.0172574 
8.73368e-05 2.94553e-09 2.08656e-09 -4.9782e-08 0 0 -8.73368e-05 -0.00507418 
0.00016244 -9.99677e-09 -9.25905e-08 2.20528e-09 0 -0.00016244 0 0.0290437 
0.000227888 -3.88661e-09 5.49261e-09 -1.29896e-07 0 0 -0.000227888 0.0154155 
0.000298234 -5.55444e-11 2.12491e-08 6.3559e-10 -5.67353e-07 0.000298233 0 -0.0208271 
0.000490601 1.70689e-11 8.93678e-09 -4.54955e-11 -3.32742e-05 0.000488965 -2.22604e-05 -0.032202 
0.000157841 -2.79024e-11 2.54441e-09 -8.82886e-11 -1.72976e-06 0.000157736 -5.47329e-06 0 
0.000481478 -2.69168e-10 8.6591e-09 -4.55442e-10 -1.49389e-05 0.000480582 -2.52771e-05 -1.74334e-17 
0.000197685 -5.73137e-11 3.25873e-09 -3.68594e-11 -3.47606e-06 0.000197642 -2.23552e-06 0 
0 0 0 0 0 0 0 0 
0.000458161 -2.63509e-10 1.10461e-08 -5.3778e-10 -2.42414e-07 0.00045812 6.10234e-06 -0.00251293 
0.000325461 -1.15545e-10 6.02591e-09 -5.39383e-10 -1.2455e-05 0.000325159 6.43566e-06 -0.0240854 
0.000355812 -6.92585e-11 5.73574e-09 1.99024e-10 -4.2935e-06 0.000355572 1.2338e-05 -1.70386e-17 
0.000336411 -1.29433e-10 2.39692e-08 1.32092e-09 -1.60246e-07 0.000336411 0 -0.0269015 
0.000123395 -1.67255e-11 0 8.79188e-09 -2.34743e-07 0 0.000123395 -5.23523e-18 
0.000110216 -1.92152e-09 1.38109e-09 1.81426e-09 -7.47522e-06 5.00092e-06 0.000109848 0.00541168 
9.18689e-05 -1.62402e-11 5.13871e-11 1.48094e-09 -1.00678e-06 3.18565e-06 9.18082e-05 4.86823e-18 
2.71526e-05 2.51643e-10 1.8421e-10 4.88279e-10 -8.42465e-07 1.42548e-06 2.7102e-05 -0.00118341 
0.000299204 -2.94883e-10 -9.61434e-10 4.94007e-09 -5.26116e-06 3.38354e-06 0.000299138 0.0124263 
0 0 0 0 0 0 0 0 
0.000211533 -2.69645e-12 -6.78783e-11 5.09582e-09 -1.11923e-07 -2.81745e-06 0.000211514 1.12046e-18 
0.000189207 -1.33799e-10 -6.91354e-11 3.49304e-09 -7.24073e-06 -3.74138e-06 0.000189032 -2.97479e-17 
0 0 0 0 0 0 0 0 
0.000172943 2.13841e-09 -1.00098e-09 1.23232e-08 -8.23799e-08 0 0.000172943 0.00256662 
0.000220891 1.69011e-09 -1.57417e-08 1.38331e-09 -4.20218e-07 -0.000220891 0 -0.0082303 
0.000181343 -2.2332e-10 -3.28169e-09 1.49401e-10 -1.22993e-05 -0.000180739 8.22825e-06 6.48743e-18 
0.000402248 3.56e-10 -6.4794e-09 5.00883e-10 -4.40818e-06 -0.000401982 1.39483e-05 0.0102834 
0.000259768 -1.8109e-10 -4.66254e-09 4.0018e-10 -8.05986e-06 -0.000259285 1.36376e-05 0.00793982 
0 0 0 0 0 0 0 0 
0 0 0 0 0 0 0 0 
0.000412169 -5.25399e-12 -9.92912e-09 -1.3226e-10 -2.1808e-07 -0.000412132 -5.48975e-06 1.87422e-17 
0.000103821 -7.34172e-11 -1.91668e-09 -3.79356e-11 -3.97309e-06 -0.000103724 -2.05295e-06 -4.2497e-18 
0 0 0 0 0 0 0 0 
0.000311473 -3.36735e-10 -2.21923e-08 1.80315e-09 -1.48367e-07 -0.000311473 0 0.00288403 
0.000380504 5.8821e-10 1.16813e-10 -2.71121e-08 -7.23862e-07 0 -0.000380503 0.000262991 
0.000419709 -5.16862e-10 -3.4578e-10 -7.59528e-09 -2.84661e-05 -1.90438e-05 -0.000418309 2.00029e-17 
0.000227824 -1.49618e-08 -1.20489e-09 -3.47154e-09 -2.49669e-06 -7.90003e-06 -0.000227673 1.35795 
5.14182e-05 -2.35937e-10 4.10657e-10 -9.42444e-10 -1.59536e-06 -2.69941e-06 -5.13225e-05 -0.000713306 
0.000295512 -2.98892e-10 2.93579e-10 -4.87157e-09 -5.19625e-06 -3.3418e-06 -0.000295448 -0.0325881 
0 0 0 0 0 0 0 0 
0.000182301 -1.35422e-08 1.30399e-09 -4.36786e-09 -9.64559e-08 2.4281e-06 -0.000182285 1.12037 
0.000530174 -3.74915e-10 1.93723e-10 -9.78778e-09 -2.02891e-05 1.04836e-05 -0.000529682 -2.76231e-17 
0.000162149 -3.15622e-11 9.06986e-11 -2.61387e-09 -1.95661e-06 5.62262e-06 -0.00016204 -2.43409e-18 
0.000152716 -4.09284e-10 4.40654e-10 -1.08808e-08 -7.27448e-08 0 -0.000152716 -0.00294653 
0 0 0 0 0 0 0 0 
0 0 0 0 0 0 0 0 
0 0 0 0 0 0 0 0 
0 0 0 0 0 0 0 0 
0 0 0 0 0 0 0 0 
0 0 0 0 0 0 0 0 
0 0 0 0 0 0 0 0 
0 0 0 0 0 0 0 0 
0 0 0 0 0 0 0 0 
0 0 0 0 0 0 0 0 
0 0 0 0 0 0 0 0 
0 0 0 0 0 0 0 0 
0 0 0 0 0 0 0 0 
0 0 0 0 0 0 0 0 
0 0 0 0 0 0 0 0 
0 0 0 0 0 0 0 0 
0.000187394 -7.66829e-10 4.32752e-09 -1.16211e-10 -3.26851e-05 0.000184455 -4.95335e-06 2.67774e-17 
0 0 0 0 0 0 0 0 
0.000664038 -1.08748e-09 4.90423e-09 -3.97866e-10 -0.000143305 0.000646267 -5.24298e-05 0 
0.000750846 -2.41337e-09 1.28294e-08 -1.06449e-09 -0.000138349 0.000735463 -6.10233e-05 -3.06118e-16 
0.000644947 -1.64279e-09 1.22002e-08 -1.859e-09 -0.000125731 0.000628384 -7.26744e-05 -0.00149567 
0.000671834 -1.02565e-09 4.6143e-09 -7.21565e-10 -0.000158799 0.000648441 -7.529e-05 0.047667 
0.000118015 -3.21803e-10 1.45231e-09 -2.18715e-10 -2.5259e-05 0.000113995 -1.71674e-05 -9.24582e-18 
0.000184019 -5.54337e-10 2.39567e-09 -3.29911e-10 -4.11158e-05 0.00017769 -2.44699e-05 0 
0.000171289 -4.52293e-11 2.00422e-09 -5.10743e-10 -3.99062e-05 0.000162679 -3.58152e-05 0.0248305 
0.000445586 -1.37889e-09 4.91175e-09 -8.98545e-10 -8.55163e-05 0.000436795 -2.10641e-05 0.043163 
0.000135493 -3.85288e-10 1.52013e-09 -3.54215e-10 -3.24711e-05 0.000128112 -2.98523e-05 -1.65454e-17 
0.000119135 -3.99499e-10 2.23812e-09 8.46994e-11 -2.09199e-05 0.000117199 4.4353e-06 -2.05608e-18 
0.000400833 -1.36842e-08 2.92414e-09 4.04293e-10 -8.40338e-05 0.000390057 3.82217e-05 1.49304 
0.00039806 -1.13141e-09 9.20859e-09 1.35675e-09 -7.0142e-05 0.000391555 1.47126e-05 0.0291546 
0.000900348 -2.10685e-09 8.01964e-09 1.61864e-09 -0.00022453 0.000854667 0.000172501 -2.67805e-16 
0.000978931 -1.57261e-09 6.36963e-09 9.64443e-10 -0.00023215 0.000940289 0.000142372 -3.70958e-16 
0.000148035 -1.31851e-09 1.36095e-09 1.66508e-09 -3.36672e-05 0.000142167 2.38649e-05 -0.00617024 
0.000773451 -2.16864e-09 1.01556e-08 1.25701e-09 -0.000160352 0.000750916 9.2945e-05 -1.11775e-16 
0.000681215 -1.42976e-09 7.03145e-09 6.00725e-10 -0.000135266 0.000665227 5.6833e-05 -1.48588e-17 
0.000149984 -2.93571e-10 2.92501e-09 -1.28524e-09 -2.69249e-05 0.000147366 7.32472e-06 0.0295702 
0.000779519 -2.57331e-09 1.37287e-08 -9.66505e-10 -0.000152523 0.000756275 0.000111507 0.0304352 
4.78718e-05 -1.15203e-10 5.38551e-10 9.08417e-11 -9.88033e-06 4.61886e-05 7.791e-06 0 
0.000445662 -2.78684e-09 9.12684e-10 4.89309e-09 -8.02736e-05 4.07707e-05 0.000436473 -0.0368614 
0.000410259 -6.93939e-10 3.433e-10 2.82019e-09 -9.73473e-05 4.81589e-05 0.000395622 0 
0.000539239 2.13023e-09 -1.28999e-09 1.0113e-08 -9.82644e-05 3.54382e-05 0.000529024 0.0172406 
0.000206837 -7.53492e-10 2.81999e-10 3.85238e-09 -3.9601e-05 1.48209e-05 0.000202468 -2.0636e-18 
0.000793907 -1.80297e-09 5.03993e-10 8.88959e-09 -0.000157563 4.40442e-05 0.000776867 -2.74506e-17 
0.000384308 -1.56239e-10 -1.93944e-10 5.7544e-09 -7.97622e-05 3.01804e-05 0.000374727 0.0310991 
0.00067015 -1.33947e-08 1.15139e-09 4.46819e-09 -0.00014745 0.000147949 0.000636766 1.73161 
0.00012856 -2.11216e-10 1.16219e-10 8.68003e-10 -3.01423e-05 1.65854e-05 0.000123871 -1.12067e-17 
0.000291092 -1.13305e-09 9.38974e-10 5.41586e-09 -5.21017e-05 1.08304e-05 0.000286186 -0.0038198 
0.00111254 -2.40038e-09 3.38682e-09 1.04232e-08 -0.00026379 0.000304838 0.00103694 -0.0172581 
0.000368953 -7.22363e-10 3.37061e-10 2.80168e-09 -7.97931e-05 8.45814e-05 0.000350151 -0.0659967 
0.000306993 -9.907e-10 -5.35557e-11 6.36437e-09 -5.76253e-05 -1.83351e-05 0.000300978 -0.0190775 
0.000629028 -1.06398e-09 -5.26363e-10 4.32404e-09 -0.000149257 -7.38394e-05 0.000606585 1.77636e-16 
0.000597084 -1.09283e-09 -1.31023e-09 4.26677e-09 -0.000141997 -0.000170245 0.000554404 5.10182e-18 
0.0002646 -4.07169e-10 -1.43203e-10 1.76517e-09 -5.92884e-05 -2.0852e-05 0.000257028 5.71732e-18 
0.00045031 -1.18007e-09 -1.2026e-09 4.67676e-09 -0.000106899 -0.00010894 0.000423655 -5.69095e-17 
0.000302566 -7.03815e-10 -6.72883e-10 3.24093e-09 -6.29278e-05 -6.01622e-05 0.00028977 -3.5106e-18 
0.000334366 -7.20845e-10 -3.0092e-10 3.54631e-09 -6.63742e-05 -2.77083e-05 0.000326538 0 
0.000184015 -1.63624e-09 5.09536e-10 3.00685e-09 -3.56282e-05 -1.77692e-05 0.000179656 -0.00937949 
0.000371186 -8.99038e-09 -6.43212e-10 2.46436e-08 -6.44466e-05 -3.97591e-06 0.000365526 0.141503 
0.000248669 -9.77787e-10 -1.12872e-09 5.86348e-09 -4.41014e-05 -1.77204e-05 0.000244084 0.00454573 
0.000616151 -2.617e-09 -1.42762e-08 -2.0104e-09 -0.000107469 -0.000606488 1.62866e-05 -0.0068844 
0.00057272 -1.72027e-09 -6.80093e-09 1.37266e-09 -0.00013783 -0.0005449 0.000109979 -8.80854e-17 
0 0 0 0 0 0 0 0 
0.000219016 -7.03962e-10 -3.74225e-09 3.10504e-10 -4.03555e-05 -0.000214529 1.78e-05 -1.57561e-17 
0.000394793 -5.47919e-10 -7.60161e-09 7.75885e-10 -7.69644e-05 -0.000384655 4.44864e-05 0.00148911 
0 0 0 0 0 0 0 0 
0.000224291 -6.11595e-10 -2.76015e-09 4.15673e-10 -4.80055e-05 -0.00021665 3.26271e-05 -1.84916e-17 
0 0 0 0 0 0 0 0 
0.000536327 -8.22275e-09 -4.55579e-09 4.06155e-10 -0.000124951 -0.00050937 0.000112142 1.0763 
9.93418e-05 -2.19157e-10 -1.1194e-09 5.3982e-11 -1.90656e-05 -9.7382e-05 4.69617e-06 6.8316e-18 
0.00103822 -7.84768e-10 -1.25681e-08 1.1235e-09 -0.000248812 -0.000981671 0.000228745 -0.0479258 
0.000572337 -1.00796e-09 -1.09122e-08 -4.77298e-10 -0.000100502 -0.000563041 -2.13078e-05 -0.00783743 
0 0 0 0 0 0 0 0 
0.000257722 -2.23586e-10 -6.04806e-09 -1.01556e-09 -4.54131e-05 -0.00025351 -9.52556e-06 0.0185547 
0.000752454 -1.76077e-09 -6.70232e-09 -1.35276e-09 -0.000187648 -0.000714277 -0.000144166 1.67378e-17 
0 0 0 0 0 0 0 0 
0.000386811 -1.11441e-09 -4.70582e-09 -7.89946e-10 -8.79712e-05 -0.000371477 -6.23582e-05 4.64928e-18 
0.000510571 -1.43157e-09 -6.70391e-09 -8.2978e-10 -0.000105852 -0.000495696 -6.1355e-05 -1.74195e-17 
0.000353758 -1.72297e-09 -3.54458e-09 7.7061e-10 -7.02445e-05 -0.000345455 -2.95133e-05 -0.0301975 
2.29236e-05 -7.85779e-11 -4.30073e-10 -2.13765e-11 -4.11521e-06 -2.25234e-05 -1.11951e-06 5.14078e-19 
0.000266702 -9.25892e-10 -4.21513e-09 -2.87594e-09 -5.21838e-05 -0.00025875 -3.81506e-05 0.00260177 
0.000538854 -1.29675e-09 -6.06204e-09 -1.02253e-09 -0.000111215 -0.000519908 -8.7697e-05 2.28989e-16 
0 0 0 0 0 0 0 0 
0 0 0 0 0 0 0 0 
2.59488e-05 -8.28537e-11 -2.98805e-11 -4.46058e-10 -4.72861e-06 -1.70533e-06 -2.54573e-05 5.6022e-19 
0.000168312 -6.06989e-10 -1.30481e-09 -3.05735e-09 -3.22251e-05 -1.20604e-05 -0.000164758 0.0100135 
0.000645205 -1.61514e-08 -1.91404e-09 -4.16061e-09 -0.000128051 -3.57946e-05 -0.000631356 1.90131 
0.00066019 -2.92333e-09 -3.86324e-09 -8.98219e-09 -0.000137021 -5.18458e-05 -0.00064373 0.0196936 
0.000790369 -1.77109e-09 -3.33086e-09 -8.05934e-09 -0.000173901 -0.00017449 -0.000750996 -0.0045943 
0 0 0 0 0 0 0 0 
0.000452926 -1.54909e-09 -3.22011e-10 -8.50888e-09 -8.10679e-05 -1.68517e-05 -0.000445293 -3.08221e-17 
0 0 0 0 0 0 0 0 
0 0 0 0 0 0 0 0 
7.15254e-05 -2.81156e-10 8.94578e-11 -1.46849e-09 -1.34259e-05 4.27184e-06 -7.0124e-05 -3.74994e-18 
0.00131195 -2.21911e-09 1.09782e-09 -9.01853e-09 -0.000311302 0.000154005 -0.00126514 -1.05755e-15 
0.000296009 -5.41778e-10 6.49558e-10 -2.11528e-09 -7.03961e-05 8.44004e-05 -0.00027485 -1.27545e-17 
0 0 0 0 0 0 0 0 
7.61445e-05 -1.99542e-10 2.03352e-10 -7.9081e-10 -1.8076e-05 1.84211e-05 -7.16373e-05 -5.33526e-18 
0.000132635 -3.08529e-10 2.9497e-10 -1.42072e-09 -2.75855e-05 2.63731e-05 -0.000127026 -1.7553e-18 
0.000325568 -1.63715e-10 5.97136e-10 -3.53658e-09 -6.46278e-05 2.69792e-05 -0.000317946 -0.0184354 
0.00112474 4.53685e-10 3.00907e-09 -1.98461e-08 -0.000217767 0.000108609 -0.0010981 -0.000913781 
0.00038408 -3.8614e-09 1.00116e-09 -2.64554e-08 -6.66854e-05 4.11403e-06 -0.000378224 0.00774014 
0.000934811 -5.13555e-09 -4.1259e-10 -2.21166e-08 -0.000165789 6.66158e-05 -0.000917578 -0.0113405 
0.000489752 -1.91425e-10 2.07149e-09 -3.21436e-11 -2.75559e-05 0.000460204 0.000165258 -0.0128861 
0.00219973 -4.94398e-10 9.67651e-09 2.97144e-09 -0.00010731 0.00210031 0.00064496 7.45711e-17 
0 0 0 0 0 0 0 0 
0.000215451 -7.04951e-11 2.07204e-09 8.72214e-10 -6.75261e-06 0.000198478 8.35479e-05 -3.76106e-18 
0.000318557 -1.10366e-11 8.88755e-09 6.91785e-10 -3.94391e-07 0.000317596 2.47209e-05 4.20932e-18 
0.0010508 -2.67837e-10 3.61212e-09 1.87464e-09 -6.90083e-05 0.000930664 0.000483002 1.21397e-16 
0.000389945 -8.17127e-10 2.17303e-09 2.6934e-09 -2.0202e-05 0.00035875 0.000151484 0.0168735 
0.00386695 -8.57071e-10 1.71897e-08 9.95918e-09 -0.000166673 0.00334284 0.00193674 -9.77362e-16 
0.000596865 -1.05043e-09 4.45047e-09 1.56886e-09 -3.05847e-05 0.000554628 0.000218404 0.040584 
0.000110418 2.28182e-10 2.28754e-10 1.96231e-09 -4.42071e-06 0.000103492 3.82375e-05 0.0823566 
0.000223647 -6.194e-11 2.1887e-09 8.32493e-10 -5.91364e-06 0.000208964 7.94813e-05 -9.37178e-19 
0.000228227 -3.24319e-11 1.75556e-09 5.19598e-10 -4.04224e-06 0.000218809 6.47615e-05 -3.42566e-17 
0 0 0 0 0 0 0 0 
0.000166804 -2.07189e-11 2.75046e-09 4.52887e-10 -1.23979e-06 0.000164583 2.71001e-05 3.46554e-17 
0.000490392 -5.38639e-09 1.18713e-08 2.48278e-09 -1.78275e-06 0.000484189 7.77269e-05 0.419262 
0.000592946 -2.17806e-10 3.98364e-09 2.83713e-09 -2.63807e-05 0.000482498 0.000343633 -1.48615e-16 
0 0 0 0 0 0 0 0 
0.000250105 -4.71002e-11 1.24015e-09 4.77952e-10 -8.85783e-06 0.000233226 8.98854e-05 -3.69209e-18 
0.000134865 -3.03115e-11 5.93267e-10 -1.8218e-10 -6.57917e-06 0.00012877 -3.95424e-05 0 
0 0 0 0 0 0 0 0 
0.000358729 -9.56465e-11 3.8669e-09 -9.1704e-10 -8.63109e-06 0.000348947 -8.27532e-05 -7.08638e-18 
0.000740751 -2.01954e-09 7.95355e-09 -2.06285e-09 -1.47401e-05 0.000724232 -0.000154862 -0.000921017 
0 0 0 0 0 0 0 0 
0.00602499 -3.09186e-09 3.97806e-08 -2.35572e-08 -0.000402032 0.00517264 -0.00306312 -1.96051e-15 
0.000442765 -5.28788e-10 7.3767e-09 -7.63238e-10 -1.48844e-06 0.000438907 -5.83061e-05 -0.000560926 
0.00386681 -5.52044e-10 3.09744e-08 -8.1354e-09 -6.66459e-05 0.0037394 -0.000982153 1.87712e-15 
0.000323496 -8.89144e-10 3.10356e-09 -1.44246e-09 -8.47512e-06 0.000303899 -0.000110558 -0.00768312 
0.00113955 4.22896e-10 1.01257e-08 -5.87969e-09 -4.33613e-05 0.000983463 -0.000574008 0.0155382 
0.000166779 -7.45219e-11 1.43714e-09 -9.16847e-10 -7.28389e-06 0.000140469 -8.96141e-05 -7.67551e-18 
0 0 0 0 0 0 0 0 
0.00176826 -3.58749e-10 6.77234e-09 -2.3083e-09 -8.85498e-05 0.00167161 -0.000569754 -6.2026e-16 
0.000875527 -2.00813e-10 3.33996e-09 -1.21778e-09 -4.93771e-05 0.000821248 -0.000299435 2.89636e-17 
0.000533479 8.84786e-10 1.03022e-08 -2.04087e-09 -1.45764e-06 0.000532076 -3.86285e-05 0.0367992 
0.000210684 2.68915e-10 1.96855e-09 -6.13313e-10 -5.24706e-06 0.000204737 -4.94276e-05 0.0312944 
0.00597476 -1.52292e-09 2.05381e-08 -1.0659e-08 -0.00039238 0.00529166 -0.0027463 -2.58982e-15 
0 0 0 0 0 0 0 0 
0.00423136 -2.13166e-10 1.242e-09 -4.16043e-09 -0.000207491 0.00120894 -0.00404967 2.29314e-16 
0.0006488 -9.96747e-11 1.24934e-09 -6.9515e-09 -1.64526e-05 0.00019234 -0.000619416 0.0119657 
0.000627369 -4.46823e-09 2.07641e-09 -1.19216e-08 -7.67661e-06 8.40642e-05 -0.000621664 0.667477 
0.00111832 -5.8528e-10 5.51956e-09 -6.47008e-09 -7.67807e-05 0.000724091 -0.000848787 6.69622e-16 
0.00172082 -3.97585e-10 2.6772e-09 -6.34023e-09 -9.92446e-05 0.00066828 -0.00158264 7.35083e-17 
0 0 0 0 0 0 0 0 
0 0 0 0 0 0 0 0 
0.000381725 6.24621e-10 6.05804e-10 -3.05649e-09 -1.56093e-05 0.000146927 -0.000351969 0.0450899 
0 0 0 0 0 0 0 0 
0.00116975 -9.37747e-10 -1.88568e-09 -1.37099e-08 -2.46067e-05 0.000317272 -0.00112563 1.69007 
0 0 0 0 0 0 0 0 
0.00111761 -3.29848e-09 1.05921e-08 -1.65928e-08 -1.19076e-05 0.000249959 -0.00108923 1.21941 
0 0 0 0 0 0 0 0 
0 0 0 0 0 0 0 0 
0.00116925 -2.26756e-09 4.79663e-09 -1.82057e-08 -1.80495e-05 0.000358903 -0.00111266 -0.00139375 
0 0 0 0 0 0 0 0 
6.91469e-05 1.802e-13 -1.67661e-12 -4.02559e-10 3.09524e-08 -2.87986e-07 -6.91463e-05 -1.34886e-17 
0.000370606 -1.89502e-10 -1.53874e-09 -3.17798e-09 -1.38752e-05 -9.4275e-05 -0.000358146 0.0630104 
0.000136394 1.27761e-09 -1.20826e-09 -2.22349e-09 -9.63066e-07 -1.77156e-05 -0.000135235 0.000350986 
0.000376384 -8.44929e-11 -1.00932e-09 -3.97877e-09 -7.74583e-06 -9.25287e-05 -0.000364751 -7.19905e-17 
0.00067021 -6.45203e-09 -3.07404e-09 -6.53042e-09 -1.66688e-05 -0.000181767 -0.000644875 0.905293 
0.000637148 5.46562e-10 -1.22906e-09 -3.14306e-09 -2.62391e-05 -0.000253991 -0.000583744 0.106532 
0.000491562 -2.53925e-10 -2.09002e-09 -3.11171e-09 -3.32229e-05 -0.000273452 -0.000407128 -1.02745e-17 
0 0 0 0 0 0 0 0 
0.000568497 -1.25319e-10 -1.74371e-09 -9.58592e-09 -7.31149e-06 -0.000101733 -0.000559272 -9.1632e-17 
0.000900568 -2.53856e-10 -3.64578e-09 -8.66098e-09 -2.43194e-05 -0.000349267 -0.000829725 -2.25692e-17 
0 0 0 0 0 0 0 0 
0.000381106 -9.45298e-10 -1.33158e-09 -2.67857e-09 -1.55839e-05 -0.000146689 -0.000351399 -0.138128 
0.000475169 -4.47459e-10 -1.54743e-09 -2.83825e-09 -2.33674e-05 -0.000257424 -0.000398713 -0.0031108 
0 0 0 0 0 0 0 0 
0 0 0 0 0 0 0 0 
0.000357033 9.00983e-10 1.92063e-09 -6.4146e-09 -1.54725e-06 -3.75755e-05 -0.000355046 0.070542 
0.000268975 -9.88022e-11 -1.28699e-09 -1.80708e-09 -1.19669e-05 -0.00015588 -0.000218873 1.90228e-17 
0 0 0 0 0 0 0 0 
0.000126828 -5.40233e-11 -6.24394e-10 -6.00451e-10 -7.89412e-06 -9.12392e-05 -8.77406e-05 -1.72124e-17 
0 0 0 0 0 0 0 0 
0.000568825 -7.34654e-10 -5.49748e-09 -2.95737e-09 -1.68081e-05 -0.000543 -0.000168612 0.045017 
0.000404546 -6.52671e-11 -6.8214e-09 -1.24083e-09 -3.80803e-06 -0.000397997 -7.23969e-05 3.14997e-18 
0.000294507 -1.52132e-10 -1.8643e-09 -1.25218e-09 -1.99046e-05 -0.00024392 -0.000163832 -8.21956e-17 
0.00114358 -4.76744e-10 -7.74162e-09 -4.26351e-09 -6.15978e-05 -0.00100026 -0.000550867 3.24682e-16 
0.000612772 -2.3908e-10 -5.42249e-09 -3.16489e-09 -2.33169e-05 -0.000528841 -0.000308664 0 
0 0 0 0 0 0 0 0 
0.00031085 -1.01803e-10 -3.04694e-09 -1.21562e-09 -9.64197e-06 -0.000288581 -0.000115133 5.95006e-17 
0 0 0 0 0 0 0 0 
0 0 0 0 0 0 0 0 
0.000421955 -4.72578e-11 -3.57527e-09 -6.80763e-10 -5.47849e-06 -0.000414473 -7.89194e-05 3.64146e-17 
0.000429116 -3.81437e-09 -7.11676e-09 -7.29713e-10 -3.33725e-06 -0.000421024 -8.28762e-05 0.650621 
0.0014715 -1.65284e-09 -3.4749e-08 -8.87797e-10 -4.04929e-08 -0.00147137 -1.99146e-05 0.0236485 
0 0 0 0 0 0 0 0 
0 0 0 0 0 0 0 0 
7.15907e-05 -8.95848e-10 -1.82158e-09 4.97768e-10 -8.56262e-08 -7.13107e-05 -6.32436e-06 0.0264139 
0.000128988 0 -9.67411e-10 6.15905e-12 1.60399e-23 -0.000128986 8.21189e-07 0 
0.000318852 -1.88932e-11 -8.89578e-09 6.92426e-10 -6.75147e-07 -0.00031789 2.47438e-05 3.12191e-17 
0.000422819 -4.94082e-11 -3.9111e-09 6.99222e-10 -5.25762e-06 -0.000416187 7.44055e-05 -1.67127e-17 
0.000974565 -2.57504e-10 -9.21489e-09 4.00647e-09 -2.49669e-05 -0.000893451 0.000388457 0 
3.03931e-05 -8.70711e-12 -4.26815e-10 1.65635e-10 -5.77922e-07 -2.83292e-05 1.09938e-05 0 
0 0 0 0 0 0 0 0 
0 0 0 0 0 0 0 0 
0.000571995 -1.28628e-10 -9.26565e-09 2.1263e-09 -7.73868e-06 -0.000557453 0.000127925 -1.91344e-16 
0.000282437 -8.07329e-11 -2.61779e-09 1.26276e-09 -7.84229e-06 -0.000254289 0.000122663 0 
0.0001949 -6.46974e-11 -1.83872e-09 8.51043e-10 -6.22032e-06 -0.000176783 8.18234e-05 1.13252e-17 
0.000201448 9.69008e-10 -1.34162e-09 5.88405e-10 -7.13462e-06 -0.000187853 7.23983e-05 0.0526553 
0 0 0 0 0 0 0 0 
0.00230966 -9.36824e-09 -1.51306e-08 9.6752e-09 -0.000107911 -0.00210368 0.000947336 3.16579 
0.000303984 -1.22053e-09 -1.54262e-09 2.11417e-09 -1.78849e-05 -0.000273132 0.000132233 0.0719127 
0.000269281 -5.01854e-09 -7.60564e-09 -4.81225e-10 -6.6253e-07 -0.000267837 2.78385e-05 0.209271 
2.92586e-05 -5.54084e-12 -3.40773e-10 1.21825e-10 -4.47915e-07 -2.75478e-05 9.84819e-06 1.58704e-18 
0.00072935 -1.53921e-09 -3.88862e-09 2.27074e-09 -4.12362e-05 -0.000558379 0.000467401 -0.0223436 
0.00659251 -1.47418e-09 -8.84097e-09 2.462e-08 -0.000370927 -0.00222452 0.00619476 1.26458e-15 
0.000292212 -8.48546e-11 -7.207e-10 2.27064e-09 -1.04018e-05 -8.83458e-05 0.000278342 -3.08041e-16 
0.00215817 -6.0051e-09 -8.76373e-09 1.93416e-08 -5.37492e-05 -0.000506318 0.00209725 2.69244 
0.000139396 -1.31013e-09 -8.25153e-10 2.64217e-09 -9.57928e-07 -1.29642e-05 0.000138789 0.0222473 
0.000175902 -6.79015e-13 -8.39914e-12 1.31927e-09 -9.05335e-08 -1.11986e-06 0.000175899 0 
0.000522563 -1.33195e-10 -9.32257e-10 1.7963e-09 -3.43177e-05 -0.000240196 0.000462818 2.02329e-17 
0 0 0 0 0 0 0 0 
0.00161298 -5.31806e-10 -5.07313e-09 9.92782e-09 -7.68522e-05 -0.000733127 0.00143469 -7.26291e-16 
0.00118022 -4.30446e-10 -3.4466e-09 8.75251e-09 -5.395e-05 -0.000431979 0.001097 3.14956e-16 
0.000485846 -1.56764e-10 -1.43717e-09 3.57824e-09 -1.97353e-05 -0.000180927 0.000450469 0 
0.00244422 -5.75108e-10 -9.09825e-09 2.39202e-08 -5.4913e-05 -0.000868729 0.00228397 2.87929e-15 
0.000216631 -4.97395e-11 -7.15099e-10 2.17066e-09 -4.7136e-06 -6.77669e-05 0.000205704 -1.19069e-16 
0.00103413 -1.96848e-10 -2.90099e-09 1.1045e-08 -1.78234e-05 -0.000262668 0.00100006 0 
0 0 0 0 0 0 0 0 
0 0 0 0 0 0 0 0 
0.00156888 -4.61777e-10 -3.88929e-09 1.95782e-08 -3.62852e-05 -0.00030561 0.0015384 -1.39455e-15 
0.000139035 -1.27805e-11 -5.70295e-10 3.39274e-09 -5.16501e-07 -2.30474e-05 0.000137111 1.26943e-17 
7.35827e-05 -1.76475e-11 -3.66176e-10 8.33198e-10 -1.42653e-06 -2.95998e-05 6.73516e-05 6.34786e-18 
0.000821212 2.65317e-10 1.31367e-09 3.57272e-09 -4.00615e-05 0.00024078 0.000784098 -0.04699 
0.00110412 -4.77365e-09 5.13657e-09 1.71721e-08 -7.82228e-06 0.000217484 0.00108247 0.547743 
0.000155027 -3.79501e-11 3.46366e-10 1.9525e-09 -2.96634e-06 2.70733e-05 0.000152615 3.06906e-17 
0.00233201 -1.30345e-09 6.63651e-09 2.89169e-08 -5.39346e-05 0.000454263 0.00228671 -0.0756494 
8.82193e-05 -3.77299e-11 4.55641e-10 7.80661e-10 -3.67916e-06 4.4431e-05 7.61248e-05 -9.57197e-19 
0 0 0 0 0 0 0 0 
0 0 0 0 0 0 0 0 
0 0 0 0 0 0 0 0 
0.000259872 -3.00286e-10 3.48979e-10 4.35539e-09 -3.63059e-06 6.60103e-05 0.000251322 0.0693628 
0.000522385 -1.71081e-10 2.04285e-09 5.1204e-09 -1.62034e-05 0.000193482 0.000484962 1.48752e-17 
8.07519e-05 -2.55097e-11 1.84653e-10 6.37852e-10 -3.09986e-06 2.24385e-05 7.75099e-05 -1.19282e-18 
0.00086969 -3.88604e-10 4.78102e-09 7.49417e-09 -3.79827e-05 0.000467304 0.000732492 0 
0.000355002 1.98553e-09 4.66726e-10 2.96116e-09 -1.62277e-05 0.000129936 0.000329969 0.102213 
0.000702463 -6.32131e-10 2.03137e-09 5.15275e-09 -4.05132e-05 0.000272802 0.000646058 -0.0062364 
0.000366327 -3.922e-11 1.71056e-09 1.06516e-08 -1.33177e-06 5.80844e-05 0.000361691 8.53296e-17 
0.000891856 -2.16142e-10 2.03607e-09 8.4337e-09 -2.22116e-05 0.000209235 0.00086668 2.42097e-17 
0.000809385 -2.06305e-10 1.44395e-09 2.78224e-09 -5.31547e-05 0.000372034 0.000716847 0 
0.000222864 -2.81378e-09 2.05801e-09 -6.68821e-08 0 0 -0.000222864 0.00614898 
0 0 0 0 0 0 0 0 
0.000465958 -1.49637e-09 1.23547e-08 9.97283e-10 0 0.00046324 5.0249e-05 -0.0105032 
0.000841872 -7.61371e-09 1.6292e-08 1.53795e-08 0 0.000635084 0.000552645 0.439144 
0.00157982 0 3.5542e-08 3.78961e-08 0 0.00108073 0.00115232 -1.55209e-16 
0.000354214 0 1.13946e-08 2.42143e-09 0 0.000346477 7.36291e-05 0 
0.00126518 -5.07532e-09 5.42e-09 -4.12701e-08 0 0.00019997 -0.00124928 0.363734 
0.000571238 0 1.30342e-08 -1.3529e-08 0 0.000396333 -0.000411379 1.19392e-18 
0.00022265 0 7.18212e-09 -1.42582e-09 0 0.000218388 -4.33552e-05 -2.38784e-18 
0.000733007 -3.27791e-09 1.55309e-08 -1.40341e-08 0 0.000327219 -0.000655917 0.830665 
0.00038327 -8.13241e-10 8.7837e-09 -5.17922e-09 0 0.000336351 -0.000183749 0.0174751 
0.000472437 -3.60002e-10 8.3925e-11 -7.6211e-09 0 -3.02086e-05 -0.000471471 0.0326519 
0 0 0 0 0 0 0 0 
0 0 0 0 0 0 0 0 
0.000278846 0 -6.05719e-09 -4.27653e-09 0 -0.000227793 -0.000160828 -5.90645e-18 
0.000678062 -4.36894e-09 -2.05548e-08 -1.12942e-08 0 -0.000463854 -0.000494577 0.511256 
0.000545491 -6.33753e-10 -1.76962e-08 -3.03012e-09 0 -0.000533576 -0.000113389 -0.00352788 
0.000994103 0 -5.16732e-09 3.2282e-08 0 -0.000157124 0.000981607 7.06799e-16 
0.0017207 -2.86592e-09 -3.93322e-08 4.06845e-08 0 -0.00119384 0.00123917 0.575698 
0.000456403 -1.26085e-09 -1.49628e-08 1.71187e-09 0 -0.000447667 8.88724e-05 -0.00163537 
0.00100146 -8.78782e-09 -7.75116e-09 2.55386e-08 0 -0.000354104 0.000936766 0.563451 
0.00120965 0 -2.65231e-08 1.81977e-08 0 -0.000997453 0.000684362 -1.94913e-16 
0.000642895 5.54985e-10 -1.8697e-09 -1.95663e-09 0 -0.000642415 2.48415e-05 -0.249569 
0 0 0 0 0 0 0 0 
0.00121955 -1.38802e-08 1.287e-08 -2.03428e-08 -0.000609187 0.000564852 -0.000892822 0 
0.00194181 -3.30241e-08 3.11545e-08 7.48557e-09 -0.000969972 0.00164546 0.000349672 1.27526 
1.8872e-05 -2.14791e-10 5.3936e-11 3.68581e-10 -9.42692e-06 2.36719e-06 1.61766e-05 4.30816e-19 
0.00101538 -1.03947e-08 -1.75758e-08 1.10293e-08 -0.0005072 -0.000771943 0.000421714 0.0116797 
0.000311586 -3.07482e-09 -4.64802e-09 -4.44177e-09 -0.000155643 -0.000203626 -0.000177194 0.0157341 
0 0 0 0 0 0 0 0 
0 0 0 0 0 0 0 0 
0 0 0 0 0 0 0 0 
0 0 0 0 0 0 0 0 
0 0 0 0 0 0 0 0 
0 0 0 0 0 0 0 0 
0 0 0 0 0 0 0 0 
0 0 0 0 0 0 0 0 
0 0 0 0 0 0 0 0 
0 0 0 0 0 0 0 0 
0 0 0 0 0 0 0 0 
0 0 0 0 0 0 0 0 
0 0 0 0 0 0 0 0 
0 0 0 0 0 0 0 0 
0 0 0 0 0 0 0 0 
0 0 0 0 0 0 0 0 
0 0 0 0 0 0 0 0 
0 0 0 0 0 0 0 0 
0 0 0 0 0 0 0 0 