ITEM: TIMESTEP
400
ITEM: NUMBER OF SURFS
6916
ITEM: BOX BOUNDS oo rr rr
-0.35 0.35
-0.25 0.25
-0.25 0.25
ITEM: SURFS f_save[1] f_save[2] f_save[3] f_save[4] f_save[5] f_save[6] f_save[7] f_save[8] 
0.00516765 -3.87735e-08 1.9329e-09 -2.69392e-10 -0.00516765 0 0 2.79473 
0 0 0 0 0 0 0 0 
0 0 0 0 0 0 0 0 
0 0 0 0 0 0 0 0 
0.00681227 -1.66049e-08 0 0 -0.00681227 0 0 0 
0.0052735 -1.28542e-08 0 0 -0.0052735 0 0 0 
0.00224298 -5.32706e-09 -6.35975e-10 -3.08697e-10 -0.00224298 0 0 3.89227 
0.00580425 -1.37851e-08 0 0 -0.00580425 0 0 0 
0.00825398 -1.96032e-08 0 0 -0.00825398 0 0 0 
0.00628639 -1.49302e-08 0 0 -0.00628639 0 0 0 
0 0 0 0 0 0 0 0 
0.00574238 -1.39971e-08 0 0 -0.00574238 0 0 0 
0.0146731 -3.57656e-08 0 0 -0.0146731 0 0 0 
0.0038348 -9.10766e-09 0 0 -0.0038348 0 0 0 
0.0123721 -2.93839e-08 0 0 -0.0123721 0 0 0 
0 0 0 0 0 0 0 0 
0 0 0 0 0 0 0 0 
0.00550175 -1.30666e-08 0 0 -0.00550175 0 0 0 
0 0 0 0 0 0 0 0 
0 0 0 0 0 0 0 0 
0.00679515 -1.61385e-08 0 0 -0.00679515 0 0 0 
0 0 0 0 0 0 0 0 
0 0 0 0 0 0 0 0 
0.00210963 -5.01038e-09 0 0 -0.00210963 0 0 0 
0.00283474 -6.73253e-09 0 0 -0.00283474 0 0 0 
0 0 0 0 0 0 0 0 
0 0 0 0 0 0 0 0 
0.00268985 -6.3884e-09 0 0 -0.00268985 0 0 0 
0 0 0 0 0 0 0 0 
0.00347367 -8.68424e-09 0 0 -0.00347367 0 0 3.31703e-15 
0.00409035 -1.94292e-07 -2.16474e-10 -2.12921e-09 -0.00409035 0 0 0.565966 
0.0046328 -3.98422e-07 2.75231e-09 -2.47664e-09 -0.0046328 0 0 0.814159 
0.00324666 -1.54217e-07 2.69511e-10 5.46736e-10 -0.00324666 0 0 0.347314 
0.005573 -1.39325e-08 0 0 -0.005573 0 0 0 
0 0 0 0 0 0 0 0 
0.000338938 8.04979e-10 0 0 0.000338938 0 0 0 
0.000347048 8.2424e-10 0 0 0.000347048 0 0 0 
0.00100567 1.22566e-09 0 0 0.00100567 0 0 0 
0 0 0 0 0 0 0 0 
0 0 0 0 0 0 0 0 
0 0 0 0 0 0 0 0 
0 0 0 0 0 0 0 0 
0.00475091 1.12834e-08 0 0 0.00475091 0 0 0 
0 0 0 0 0 0 0 0 
0.00044865 1.06555e-09 0 0 0.00044865 0 0 0 
0 0 0 0 0 0 0 0 
0 0 0 0 0 0 0 0 
0.000324713 7.71193e-10 0 0 0.000324713 0 0 0 
0.000331057 7.86262e-10 0 0 0.000331057 0 0 0 
0 0 0 0 0 0 0 0 
0.000588491 1.43445e-09 0 0 0.000588491 0 0 0 
0 0 0 0 0 0 0 0 
0 0 0 0 0 0 0 0 
0 0 0 0 0 0 0 0 
0 0 0 0 0 0 0 0 
0.00059386 1.44754e-09 0 0 0.00059386 0 0 0 
0.000592067 1.44316e-09 0 0 0.000592067 0 0 0 
0.000349893 8.52863e-10 -5.08616e-10 9.70613e-10 0.000349893 0 0 -0.0697607 
0.000620623 1.47399e-09 0 0 0.000620623 0 0 0 
0 0 0 0 0 0 0 0 
0.000207605 5.06037e-10 0 0 0.000207605 0 0 0 
0 0 0 0 0 0 0 0 
1.26764e-05 -3.09242e-07 2.53921e-07 2.5969e-07 0 8.96354e-06 8.96354e-06 0.0189308 
1.3536e-05 -2.01546e-07 -1.17925e-07 -1.29016e-07 0 -9.57136e-06 -9.57136e-06 0.0267639 
0.000226038 -6.74102e-09 1.28842e-07 7.68999e-10 0 0.000226038 0 0.0153851 
0.000225903 -8.26574e-09 -1.28765e-07 -1.82749e-09 0 -0.000225903 0 0.0363257 
0.000173022 3.32536e-09 9.86228e-08 1.86459e-09 0 0.000173022 0 0.000276432 
0.000294479 -4.27354e-09 -1.67853e-07 -1.76106e-09 0 -0.000294479 0 0.0175604 
0.000188933 2.16336e-09 1.07692e-07 3.09624e-09 0 0.000188933 0 -0.00154765 
0.000247826 -9.94536e-09 -2.39149e-10 1.41261e-07 0 0 0.000247826 0.0279978 
0.000251495 -5.73867e-09 4.70411e-09 1.47124e-07 0 0 0.000251495 0.0388031 
0.000192867 4.53523e-09 1.62301e-09 -1.12827e-07 0 0 -0.000192867 -0.000878033 
0.000206045 6.5319e-09 3.9285e-09 1.20536e-07 0 0 0.000206045 -0.0012017 
0.000144128 -1.28193e-09 8.21528e-08 1.81904e-10 0 0.000144128 0 0.0154096 
9.02593e-05 -6.67347e-09 5.28017e-08 -4.29409e-09 0 9.02593e-05 0 0.0248346 
0.00021947 -7.74881e-09 4.42737e-09 -1.25098e-07 0 0 -0.00021947 0.045395 
0.000194712 -6.67245e-10 1.10986e-07 -9.03403e-10 0 0.000194712 0 0.00118064 
0.000151842 -1.2629e-08 -8.65498e-08 1.71687e-09 0 -0.000151842 0 0.045649 
0.000188053 -1.30165e-08 -3.1176e-09 1.0719e-07 0 0 0.000188053 0.0485999 
0.000202223 2.41256e-09 -3.91781e-09 1.15267e-07 0 0 0.000202223 0.00348269 
0.000135017 -8.03873e-09 1.69864e-09 -7.69599e-08 0 0 -0.000135017 0.0240492 
0.000142044 -4.99292e-09 -8.0965e-08 -5.85996e-09 0 -0.000142044 0 0.0204256 
0.000156619 -6.79635e-09 8.92726e-08 -1.25985e-09 0 0.000156619 0 0.0257834 
0.000212894 2.14418e-09 1.86053e-09 -1.2135e-07 0 0 -0.000212894 0.00046693 
0.000174092 -1.11226e-08 1.01844e-07 -2.91087e-09 0 0.000174092 0 0.0184778 
0.000124214 1.51889e-09 -2.51699e-09 7.26653e-08 0 0 0.000124214 -0.000367111 
0.000194975 3.17797e-09 -1.1406e-07 -7.21697e-10 0 -0.000194975 0 -0.000927977 
9.68536e-05 -6.65069e-09 -1.83576e-09 -5.52066e-08 0 0 -9.68536e-05 0.0274231 
0.000200192 -1.12564e-09 -1.17112e-07 -3.29818e-10 0 -0.000200192 0 0.00875204 
0.000201145 -1.38434e-08 3.38579e-09 1.1767e-07 0 0 0.000201145 0.0409158 
0.000106647 -3.66709e-09 1.42398e-09 -6.07891e-08 0 0 -0.000106647 0.0201558 
0.000111353 1.04443e-09 -6.51414e-08 -1.85694e-09 0 -0.000111353 0 0.0149993 
0.000217456 6.22121e-10 -1.2395e-07 -5.90328e-09 0 -0.000217456 0 0.00255232 
0.000149011 -5.04789e-10 7.57724e-10 4.35858e-08 0 0 0.000149011 -0.00183905 
0.000151395 -9.53127e-09 -1.87047e-09 8.62954e-08 0 0 0.000151395 0.0405402 
0.000162999 -1.09393e-08 3.15027e-09 -9.29092e-08 0 0 -0.000162999 0.040778 
0.000140638 -6.74147e-09 -5.67544e-10 8.01637e-08 0 0 0.000140638 0.0247142 
0.000103074 -6.89745e-09 -5.87522e-08 7.57705e-10 0 -0.000103074 0 0.0249373 
0.000140784 -5.43986e-09 -8.40801e-10 -8.0247e-08 0 2.76041e-11 -0.000140784 0.0293483 
0.000147912 8.6665e-10 -8.43099e-08 2.76126e-09 0 -0.000147912 0 -7.32773e-05 
9.7592e-05 -1.38624e-08 -5.56275e-08 3.73902e-09 0 -9.7592e-05 0 0.036014 
7.82713e-05 4.93998e-10 -3.04969e-10 4.46146e-08 0 0 7.82713e-05 -0.000678301 
0.000191628 7.17388e-10 1.09228e-07 1.60141e-09 0 0.000191628 0 0.00912743 
0.000102998 -1.40085e-09 -8.55804e-10 -5.8709e-08 0 0 -0.000102998 0.00516772 
0.000227598 -6.05958e-09 -1.29731e-07 4.4598e-10 0 -0.000227598 0 0.0151443 
0.000162626 -1.46651e-08 2.71307e-09 -9.26969e-08 0 0 -0.000162626 0.0483558 
0.000351891 -5.90465e-10 2.50712e-08 9.90623e-10 -6.69429e-07 0.00035189 0 -0.00563769 
0.000492407 9.50867e-11 8.96469e-09 -2.71934e-10 -3.33968e-05 0.000490765 -2.23424e-05 -0.0368641 
0.000265569 -3.70678e-10 4.29637e-09 3.9667e-10 -2.91033e-06 0.000265393 -9.20887e-06 0.0004037 
0.00042837 6.17808e-10 7.70258e-09 -9.38628e-10 -1.32911e-05 0.000427573 -2.2489e-05 -0.0462403 
0.00022173 -6.42849e-11 3.6551e-09 -4.13427e-11 -3.89887e-06 0.000221681 -2.50743e-06 5.23902e-18 
0.000447 -1.41776e-11 8.38127e-10 0 -7.56028e-06 0.000446936 0 -1.15158e-17 
0.000625739 1.05902e-09 1.50945e-08 -1.29672e-09 -3.31081e-07 0.000625684 8.33434e-06 0.00730421 
0.000509958 -5.15798e-10 9.40878e-09 1.77643e-10 -1.95155e-05 0.000509484 1.00839e-05 -0.0458856 
0.000226615 -2.71833e-10 3.64947e-09 1.51135e-10 -2.73451e-06 0.000226462 7.85801e-06 -0.00364354 
0.000258121 -7.36692e-11 1.83911e-08 7.26504e-10 -1.22953e-07 0.00025812 0 -0.0147958 
0.000135344 1.10849e-09 -8.38675e-11 9.64538e-09 -2.57475e-07 0 0.000135343 0.00219086 
0.000246669 -1.28596e-09 9.1288e-10 4.36472e-09 -1.673e-05 1.11923e-05 0.000245847 0.00297642 
0.000420366 -3.15798e-11 1.24234e-09 6.74188e-09 -4.60674e-06 1.45766e-05 0.000420088 -0.0192939 
0.000111619 8.4352e-11 1.92773e-10 2.00739e-09 -3.46323e-06 5.85992e-06 0.000111412 -0.000650877 
0.000368522 -2.21319e-10 -4.90759e-10 6.07922e-09 -6.48004e-06 4.16743e-06 0.000368442 0.00683447 
0 0 0 0 0 0 0 0 
0.00035923 6.12011e-10 -4.54906e-10 8.64964e-09 -1.9007e-07 -4.78466e-06 0.000359198 -0.00905819 
0.000306279 -4.1856e-10 -1.03675e-10 5.64677e-09 -1.17209e-05 -6.05634e-06 0.000305994 -0.00121705 
0.000257485 -5.01193e-11 -1.44025e-10 4.1507e-09 -3.10701e-06 -8.92846e-06 0.000257312 -2.00812e-17 
0.000212462 7.75718e-10 -1.55016e-09 1.51383e-08 -1.01204e-07 0 0.000212462 0.00574765 
0.000213816 1.49149e-09 -1.52373e-08 1.16043e-09 -4.06758e-07 -0.000213815 0 -0.000808254 
0.000210566 -7.45668e-09 -3.30554e-09 5.07248e-10 -1.42813e-05 -0.000209864 9.55419e-06 0.686281 
0.000316216 1.7901e-10 -5.09476e-09 3.28613e-10 -3.46537e-06 -0.000316007 1.09651e-05 0.00565588 
0.000219087 -1.42207e-10 -3.93508e-09 2.92193e-10 -6.79765e-06 -0.00021868 1.15019e-05 0.0043669 
0.000258852 -7.50476e-11 -4.26705e-09 4.82644e-11 -4.55162e-06 -0.000258796 2.92723e-06 -1.83366e-17 
0 0 0 0 0 0 0 0 
0.000263735 -3.36189e-12 -6.35337e-09 -8.46293e-11 -1.39543e-07 -0.000263712 -3.51274e-06 1.12046e-17 
0.000237293 -1.67802e-10 -4.38077e-09 -8.67056e-11 -9.08091e-06 -0.000237072 -4.69222e-06 1.43746e-16 
0 0 0 0 0 0 0 0 
0.000235733 1.18883e-09 -1.67965e-08 7.73737e-10 -1.12289e-07 -0.000235732 0 -0.000188385 
0.000318052 -4.49484e-09 1.24037e-10 -2.26527e-08 -6.05055e-07 0 -0.000318051 0.111197 
0.000337023 -4.15036e-10 -2.77659e-10 -6.09895e-09 -2.2858e-05 -1.5292e-05 -0.000335899 1.81378e-17 
0.000125303 -8.22898e-09 -6.62687e-10 -1.90934e-09 -1.37318e-06 -4.34501e-06 -0.00012522 0.746872 
0.000130016 -1.8664e-10 1.29627e-10 -2.34801e-09 -4.03402e-06 -6.82572e-06 -0.000129774 -0.000392318 
0.000315058 -6.48245e-10 -4.9452e-10 -5.17885e-09 -5.53993e-06 -3.56283e-06 -0.000314989 -0.0239568 
0 0 0 0 0 0 0 0 
0.000162792 -7.449e-09 7.37261e-10 -3.90858e-09 -8.61337e-08 2.16826e-06 -0.000162778 0.616201 
0.000322215 -2.27856e-10 1.17736e-10 -5.94856e-09 -1.23308e-05 6.37147e-06 -0.000321916 -1.86987e-17 
0.000102727 -1.99957e-11 5.74606e-11 -1.65597e-09 -1.23958e-06 3.56212e-06 -0.000102658 -1.33875e-18 
0.000127558 -2.26585e-10 2.4236e-10 -9.08839e-09 -6.0761e-08 0 -0.000127558 -0.00162059 
1.61739e-05 0 1.35105e-09 -1.35105e-09 0 1.14367e-05 -1.14367e-05 0 
0 0 0 0 0 0 0 0 
0 0 0 0 0 0 0 0 
0 0 0 0 0 0 0 0 
0 0 0 0 0 0 0 0 
0 0 0 0 0 0 0 0 
0 0 0 0 0 0 0 0 
0 0 0 0 0 0 0 0 
0 0 0 0 0 0 0 0 
0 0 0 0 0 0 0 0 
0 0 0 0 0 0 0 0 
0 0 0 0 0 0 0 0 
0 0 0 0 0 0 0 0 
0 0 0 0 0 0 0 0 
0 0 0 0 0 0 0 0 
0 0 0 0 0 0 0 0 
0.000296295 -1.21246e-09 6.84239e-09 -1.83745e-10 -5.16796e-05 0.000291648 -7.83191e-06 1.65685e-17 
0.00020016 -6.01219e-10 2.37686e-09 -4.79731e-10 -4.81705e-05 0.000190437 -3.84367e-05 1.51397e-18 
0.00070933 -4.98095e-10 5.32925e-09 -1.12287e-09 -0.000153079 0.000690347 -5.60059e-05 0.074027 
0.000556228 -1.78783e-09 9.50407e-09 -7.88578e-10 -0.000102489 0.000544832 -4.52061e-05 -1.68365e-16 
0.000517857 -1.51581e-09 9.77019e-09 -1.37635e-09 -0.000100955 0.000504558 -5.83535e-05 -0.000822621 
0.000369509 -5.64107e-10 2.53786e-09 -3.96861e-10 -8.73396e-05 0.000356643 -4.14095e-05 0.0262169 
0.000282114 -7.69267e-10 3.47173e-09 -5.22835e-10 -6.03815e-05 0.000272504 -4.10385e-05 -5.97511e-17 
0.00010121 -3.04885e-10 1.31762e-09 -1.81451e-10 -2.26137e-05 9.77293e-05 -1.34584e-05 0 
0.000470692 -1.05967e-09 5.32072e-09 -1.20962e-09 -0.00010966 0.000447034 -9.84182e-05 0.0136568 
0.000387513 -1.07263e-09 4.30651e-09 -5.71602e-10 -7.43711e-05 0.000379868 -1.83189e-05 0.0237396 
0.000291363 -1.27522e-09 3.21608e-09 -5.02403e-10 -6.98256e-05 0.000275492 -6.41942e-05 -0.0271689 
0.000169532 -2.7789e-09 2.76752e-09 7.23903e-10 -2.97696e-05 0.000166779 6.31157e-06 0.294575 
0.000220458 -7.52629e-09 1.60827e-09 2.22361e-10 -4.62186e-05 0.000214531 2.10219e-05 0.821174 
0.000320823 3.03162e-10 7.63926e-09 1.09938e-09 -5.65322e-05 0.000315581 1.18578e-05 0.000299611 
0.00102345 -2.3949e-09 9.11612e-09 1.83995e-09 -0.000255229 0.00097152 0.000196086 -1.35786e-16 
0.000538412 -8.64937e-10 3.5033e-09 5.30443e-10 -0.000127683 0.000517159 7.83044e-05 -2.04027e-16 
0.000558295 -3.26881e-09 6.15292e-09 2.60518e-09 -0.000126971 0.000536163 9.00034e-05 -0.0402253 
0.000466177 -1.30709e-09 6.121e-09 7.5763e-10 -9.6648e-05 0.000452594 5.60201e-05 -6.30731e-17 
0.000374668 -7.8637e-10 3.8673e-09 3.30399e-10 -7.43964e-05 0.000365875 3.12582e-05 -8.17231e-18 
0.000256618 -8.05848e-10 4.86765e-09 -5.59816e-10 -4.60676e-05 0.000252138 1.25323e-05 0.0358913 
0.000428735 -1.41532e-09 7.55078e-09 -5.31578e-10 -8.38878e-05 0.000415951 6.13288e-05 0.0167394 
2.63295e-05 -6.33616e-11 2.96203e-10 4.99629e-11 -5.43418e-06 2.54037e-05 4.28505e-06 0 
0.000350308 -2.1068e-09 4.52137e-10 3.88634e-09 -6.30981e-05 3.20474e-05 0.000343085 -0.0161481 
0.000361376 -6.11255e-10 3.02395e-10 2.48416e-09 -8.57482e-05 4.24207e-05 0.000348483 0 
0.000604598 1.88141e-10 -3.54809e-10 1.08569e-08 -0.000110175 3.97335e-05 0.000593145 0.00948236 
0.000187408 -1.07652e-09 -3.84853e-10 3.46037e-09 -3.58811e-05 1.34287e-05 0.00018345 0.0011206 
0.000495151 -1.1245e-09 3.14335e-10 5.54434e-09 -9.82703e-05 2.74699e-05 0.000484524 -1.79287e-17 
0.000513801 -1.00517e-09 2.41152e-10 7.48355e-09 -0.000106638 4.03497e-05 0.000500991 0.0171045 
0.000368582 -7.36708e-09 6.33265e-10 2.4575e-09 -8.10975e-05 8.13721e-05 0.000350221 0.952387 
7.07079e-05 -1.16169e-10 6.39206e-11 4.77402e-10 -1.65782e-05 9.12199e-06 6.8129e-05 -6.16366e-18 
0.000438681 -1.57597e-09 7.14494e-10 8.21226e-09 -7.85182e-05 1.63217e-05 0.000431288 -0.00210089 
0.000786114 -9.46109e-10 1.77227e-09 7.73829e-09 -0.000186392 0.000215396 0.000732692 -0.0284816 
0.00037988 -6.97315e-10 5.03403e-10 2.85747e-09 -8.21561e-05 8.70862e-05 0.00036052 -0.0362982 
0.000497371 -1.87384e-09 -1.28571e-09 1.01867e-08 -9.33608e-05 -2.97054e-05 0.000487626 0.00332561 
0.00079005 -9.54108e-09 -6.51799e-10 3.41319e-09 -0.000187465 -9.27412e-05 0.000761863 1.85341 
0.000328396 -6.01055e-10 -7.20627e-10 2.34672e-09 -7.80983e-05 -9.36349e-05 0.000304922 2.806e-18 
0.00014553 -2.23943e-10 -7.87616e-11 9.70841e-10 -3.26086e-05 -1.14686e-05 0.000141365 3.14453e-18 
0.000396292 -1.93138e-10 -1.17563e-09 4.2989e-09 -9.40761e-05 -9.58722e-05 0.000372835 -0.0156391 
0.000377004 -7.04231e-10 -3.4786e-10 4.17764e-09 -7.84095e-05 -7.49635e-05 0.00036106 -0.00727856 
0.000514988 -1.11024e-09 -4.63475e-10 5.462e-09 -0.000102229 -4.2676e-05 0.000502932 3.97693e-18 
0.000101208 -8.99932e-10 2.80245e-10 1.65377e-09 -1.95955e-05 -9.77305e-06 9.88109e-05 -0.00515872 
0.000427237 -1.2477e-08 -1.14711e-09 2.79851e-08 -7.41785e-05 -4.5763e-06 0.000420723 0.199546 
0.000345587 -1.81594e-09 -1.25997e-09 8.08858e-09 -6.12898e-05 -2.46269e-05 0.000339216 -0.0126078 
0.000399524 -1.6875e-09 -9.25228e-09 -1.06811e-09 -6.96846e-05 -0.000393258 1.05605e-05 -0.00378642 
0.000314996 -9.46149e-10 -3.74051e-09 7.54962e-10 -7.58068e-05 -0.000299695 6.04886e-05 -4.8447e-17 
0.00040667 -6.65992e-10 -3.00344e-09 2.43661e-10 -8.77628e-05 -0.000395786 3.2109e-05 2.84578e-17 
0.000659975 -2.1213e-09 -1.12768e-08 9.35663e-10 -0.000121606 -0.000646453 5.3638e-05 -1.84459e-16 
0.000360033 -8.37674e-10 -6.86132e-09 7.36736e-10 -7.01879e-05 -0.000350787 4.05695e-05 0.000819012 
7.49302e-05 -1.2593e-10 -5.14222e-10 5.97059e-11 -1.7711e-05 -7.23211e-05 8.39715e-06 -1.51861e-18 
0.00067734 -1.91858e-09 -8.41609e-09 6.14258e-10 -0.000144972 -0.000654266 9.8531e-05 -0.0141427 
0.000209711 -8.45599e-09 -1.0551e-09 -6.07342e-10 -4.68562e-05 -0.000202498 2.78863e-05 0.956969 
0.000537887 -1.20626e-08 -3.61099e-09 5.07228e-10 -0.000125315 -0.000510852 0.000112468 1.72122 
0.000156983 1.84949e-11 -1.8412e-09 6.6981e-11 -3.01279e-05 -0.000153886 7.42101e-06 0.00189212 
0.000785103 -5.01698e-10 -9.46124e-09 1.13291e-09 -0.000188151 -0.000742337 0.000172977 -0.00549627 
0.000314785 -5.54377e-10 -6.00171e-09 -2.62514e-10 -5.52759e-05 -0.000309673 -1.17193e-05 -0.00431059 
0.000149342 -6.02776e-10 -2.05524e-09 -1.78883e-10 -3.13091e-05 -0.000145327 -1.42406e-05 -5.19946e-05 
0.000368703 -1.05808e-09 -8.54649e-09 -7.54698e-10 -6.4969e-05 -0.000362678 -1.36275e-05 0.0102051 
0.00041385 -9.68423e-10 -3.68627e-09 -7.44017e-10 -0.000103207 -0.000392853 -7.92911e-05 9.20581e-18 
0.000725155 -1.16493e-09 -4.71838e-09 -7.14422e-10 -0.000171968 -0.00069653 -0.000105463 3.18792e-18 
0.000212746 -6.12924e-10 -2.5882e-09 -4.3447e-10 -4.83842e-05 -0.000204312 -3.4297e-05 2.5571e-18 
0.000359804 -1.00884e-09 -4.7243e-09 -5.84752e-10 -7.45947e-05 -0.00034932 -4.32373e-05 -2.55486e-17 
0.000349195 -1.27218e-09 -3.54557e-09 2.87479e-10 -6.93384e-05 -0.000340999 -2.91326e-05 -0.0166086 
0.000419258 -1.43714e-09 -7.86576e-09 -3.90962e-10 -7.52645e-05 -0.000411938 -2.04751e-05 1.04615e-17 
0.000516971 -1.78113e-09 -8.62491e-09 -2.51163e-09 -0.000101152 -0.000501556 -7.39506e-05 0.00143098 
0.00029637 -7.1321e-10 -3.33412e-09 -5.62392e-10 -6.11682e-05 -0.000285949 -4.82333e-05 1.25944e-16 
3.19912e-05 -6.95322e-11 -3.53152e-11 -3.78069e-10 -5.76232e-06 -2.92667e-06 -3.13316e-05 0 
0 0 0 0 0 0 0 0 
0.000483432 -1.54358e-09 -5.56678e-10 -8.31014e-09 -8.80948e-05 -3.17706e-05 -0.000474274 3.72827e-17 
0.000152652 -5.52713e-10 -7.99556e-10 -2.80056e-09 -2.92268e-05 -1.09383e-05 -0.000149428 0.00550741 
0.000492789 -9.19652e-09 -1.14028e-09 -3.83273e-09 -9.78014e-05 -2.73388e-05 -0.000482212 1.04572 
0.000430086 -1.81143e-09 -2.20182e-09 -5.89669e-09 -8.92633e-05 -3.37754e-05 -0.000419363 0.0108315 
0.000434703 -9.74099e-10 -1.83197e-09 -4.43264e-09 -9.56458e-05 -9.59695e-05 -0.000413048 -0.00252687 
0.000416386 -6.84099e-10 -3.76412e-10 -2.81133e-09 -9.76264e-05 -5.37171e-05 -0.000401199 0 
0.000446603 -1.52746e-09 -3.17515e-10 -8.39009e-09 -7.99362e-05 -1.66164e-05 -0.000439077 -2.59933e-17 
0.000136638 -3.265e-10 -3.77306e-10 -1.28344e-09 -3.23977e-05 -3.74391e-05 -0.000127353 -1.71428e-17 
0.000302729 -7.20865e-09 -1.71331e-10 -8.16564e-10 -6.54708e-05 -6.93996e-05 -0.000287301 1.50796 
0.000208947 -8.21341e-10 2.61333e-10 -4.28989e-09 -3.92211e-05 1.24793e-05 -0.000204853 -4.12493e-18 
0.00119112 -2.38421e-09 1.69345e-09 -8.01219e-09 -0.000282631 0.000139821 -0.00114862 -0.0420381 
0.000162805 -2.97978e-10 3.57257e-10 -1.16341e-09 -3.87178e-05 4.64202e-05 -0.000151167 -7.015e-18 
0.000291572 -4.48674e-10 1.578e-10 -1.9451e-09 -6.53319e-05 2.29775e-05 -0.000283228 0 
4.18795e-05 -1.09748e-10 1.11844e-10 -4.34946e-10 -9.9418e-06 1.01316e-05 -3.94005e-05 -2.9344e-18 
0.000346356 -8.05677e-10 7.70268e-10 -3.70998e-09 -7.20352e-05 6.88693e-05 -0.000331708 -2.48112e-16 
0.000230518 -2.00974e-10 3.74734e-10 -2.49086e-09 -4.57596e-05 1.91026e-05 -0.000225121 -0.0101395 
0.000762398 -2.3511e-10 1.8967e-09 -1.33592e-08 -0.000147613 7.36201e-05 -0.00074434 -0.00050258 
0.000374905 -3.64022e-09 8.75841e-10 -2.58472e-08 -6.50924e-05 4.01575e-06 -0.000369189 0.00519068 
0.000709702 -3.66266e-09 1.09836e-10 -1.68027e-08 -0.000125866 5.05742e-05 -0.000696618 -0.00623727 
0.000435133 -1.42352e-10 1.75839e-09 2.04627e-10 -2.44827e-05 0.00040888 0.000146828 -0.00708737 
0.00120985 -2.71919e-10 5.32208e-09 1.63429e-09 -5.90207e-05 0.00115517 0.000354728 4.10141e-17 
0 0 0 0 0 0 0 0 
0.000195361 -6.39217e-11 1.87883e-09 7.90883e-10 -6.12296e-06 0.00017997 7.57574e-05 2.06858e-18 
0.000401035 -1.38941e-11 1.11886e-08 8.70896e-10 -4.96504e-07 0.000399825 3.11214e-05 1.01094e-16 
0.000577942 -1.4731e-10 1.98667e-09 1.03105e-09 -3.79546e-05 0.000511865 0.000265651 6.67686e-17 
0.00101363 -7.77269e-10 7.01718e-09 3.93975e-09 -5.25132e-05 0.000932539 0.00039377 0.00928041 
0.00212682 -4.71389e-10 9.45433e-09 5.47755e-09 -9.167e-05 0.00183856 0.00106521 -5.37549e-16 
0.000462184 1.03505e-10 3.6135e-09 9.18495e-10 -2.36833e-05 0.000429478 0.000169121 0.0260586 
6.07301e-05 1.255e-10 1.25815e-10 1.07927e-09 -2.43139e-06 5.69205e-05 2.10306e-05 0.0452961 
0.000123006 -3.4067e-11 1.20379e-09 4.57871e-10 -3.2525e-06 0.00011493 4.37147e-05 -5.15448e-19 
0.000125525 -1.78375e-11 9.65557e-10 2.85779e-10 -2.22323e-06 0.000120345 3.56188e-05 -1.88412e-17 
0 0 0 0 0 0 0 0 
0.000250472 2.23069e-10 4.28847e-09 -2.70381e-10 -1.86166e-06 0.000247137 4.06933e-05 -0.00582615 
0.000682864 -9.76243e-09 1.63706e-08 4.40198e-09 -2.48246e-06 0.000674228 0.000108234 0.887704 
0.00032612 -1.19793e-10 2.191e-09 1.56042e-09 -1.45094e-05 0.000265374 0.000188998 -8.17384e-17 
0.00012169 -2.27876e-11 1.42101e-09 4.96213e-10 -1.84214e-06 0.000114874 4.01136e-05 1.92033e-17 
0.000373614 -7.03597e-11 1.85257e-09 7.1398e-10 -1.32321e-05 0.000348401 0.000134274 -1.82758e-17 
7.41757e-05 -1.66713e-11 3.26297e-10 -1.00199e-10 -3.61854e-06 7.08233e-05 -2.17483e-05 0 
0 0 0 0 0 0 0 0 
0.000225916 -6.0235e-11 2.43525e-09 -5.77522e-10 -5.43558e-06 0.000219756 -5.21153e-05 -4.62829e-18 
0.000670891 -1.16912e-09 7.24264e-09 -1.74787e-09 -1.335e-05 0.00065593 -0.000140257 -0.00050656 
0 0 0 0 0 0 0 0 
0.00341075 -1.75031e-09 2.25199e-08 -1.33358e-08 -0.000227591 0.00292824 -0.00173404 -1.07547e-15 
0.000360139 -2.97398e-10 5.99309e-09 -6.76954e-10 -1.21067e-06 0.000357 -4.74253e-05 -0.000308509 
0.00212674 -3.03624e-10 1.70359e-08 -4.47447e-09 -3.66553e-05 0.00205667 -0.000540184 1.03242e-15 
0.0003177 -5.27877e-10 3.09997e-09 -1.30013e-09 -8.32329e-06 0.000298455 -0.000108577 -0.00422572 
0.00062675 2.32593e-10 5.56912e-09 -3.23383e-09 -2.38487e-05 0.000540904 -0.000315704 0.008546 
0.00022265 -9.94867e-11 1.91859e-09 -1.22399e-09 -9.72399e-06 0.000187526 -0.000119635 -4.22153e-18 
0.000144798 -4.89918e-11 7.97557e-10 -5.75034e-10 -7.20589e-06 0.000117308 -8.45781e-05 -6.35265e-18 
0.00136633 -2.77204e-10 5.23296e-09 -1.78361e-09 -6.8422e-05 0.00129165 -0.000440246 -3.09161e-16 
0.00048154 -1.10447e-10 1.83698e-09 -6.6978e-10 -2.71574e-05 0.000451687 -0.000164689 1.593e-17 
0.00032183 3.89572e-10 6.2137e-09 -1.24348e-09 -8.79346e-07 0.000320984 -2.33033e-05 0.0267214 
0.000510305 5.23128e-11 4.81256e-09 -1.23779e-09 -1.27091e-05 0.0004959 -0.000119721 0.0172119 
0.00345615 -8.80943e-10 1.18804e-08 -6.1658e-09 -0.000226976 0.003061 -0.00158862 -1.4244e-15 
0.000642473 -1.4811e-10 9.92712e-10 -2.36661e-09 -3.70165e-05 0.000248105 -0.000591477 -8.63559e-17 
0.00232725 -1.17241e-10 6.83102e-10 -2.28824e-09 -0.00011412 0.000664915 -0.00222732 1.26122e-16 
0.00035684 -5.48211e-11 6.87138e-10 -3.82333e-09 -9.04894e-06 0.000105787 -0.000340679 0.00658114 
0.000345053 -2.45752e-09 1.14202e-09 -6.55687e-09 -4.22213e-06 4.62353e-05 -0.000341915 0.367112 
0.000743362 -3.89043e-10 3.66892e-09 -4.30075e-09 -5.10371e-05 0.000481313 -0.000564199 4.07954e-16 
0.000946448 -2.18672e-10 1.47246e-09 -3.48713e-09 -5.45845e-05 0.000367554 -0.000870453 4.04296e-17 
0 0 0 0 0 0 0 0 
0 0 0 0 0 0 0 0 
0.000209949 3.43541e-10 3.33192e-10 -1.68107e-09 -8.5851e-06 8.08098e-05 -0.000193583 0.0247995 
0 0 0 0 0 0 0 0 
0.000643362 -5.15761e-10 -1.03712e-09 -7.54043e-09 -1.35337e-05 0.0001745 -0.000619097 0.929539 
0.000205938 -1.48507e-10 1.12849e-09 -2.02863e-09 -4.2381e-06 5.06272e-05 -0.000199573 -0.00131852 
0.00068179 -1.82605e-09 6.07511e-09 -1.0213e-08 -7.26419e-06 0.000152486 -0.00066448 0.670674 
0.000198722 1.00051e-10 1.42176e-09 -2.99776e-09 -1.50747e-06 3.9143e-05 -0.000194823 -0.0145829 
0 0 0 0 0 0 0 0 
0.000691257 -1.25913e-09 2.87628e-09 -1.07514e-08 -1.06708e-05 0.000212182 -0.0006578 -0.000766564 
0.000345277 -5.44866e-09 1.40967e-09 -8.4195e-09 -7.95e-07 4.51637e-05 -0.00034231 0.524565 
0.000393606 1.02576e-12 -9.54379e-12 -2.29149e-09 1.76191e-07 -1.63931e-06 -0.000393603 -1.66921e-17 
0.00076745 -2.36846e-09 -3.72026e-09 -6.36389e-09 -2.87328e-05 -0.000195225 -0.000741648 0.821565 
7.50167e-05 7.02685e-10 -6.64541e-10 -1.22292e-09 -5.29686e-07 -9.74357e-06 -7.43793e-05 0.000193042 
0.00052096 -1.16948e-10 -1.39702e-09 -5.50709e-09 -1.07212e-05 -0.000128071 -0.000504859 -1.72237e-16 
0.000368615 -3.54862e-09 -1.69072e-09 -3.59173e-09 -9.16784e-06 -9.99717e-05 -0.000354682 0.497911 
0.000350431 3.00609e-10 -6.75985e-10 -1.72868e-09 -1.44315e-05 -0.000139695 -0.000321059 0.0585926 
0.000270359 -1.39659e-10 -1.14951e-09 -1.71144e-09 -1.82726e-05 -0.000150399 -0.00022392 -5.65095e-18 
0 0 0 0 0 0 0 0 
0.000558834 -4.83662e-09 -1.64105e-09 -9.37465e-09 -7.18722e-06 -0.000100004 -0.000549766 0.583089 
0.000948529 -4.66903e-09 -2.90969e-09 -9.3848e-09 -2.56146e-05 -0.000367867 -0.000873913 0.710027 
0.000280963 -9.45168e-11 -1.35495e-09 -2.54732e-09 -9.199e-06 -0.000131873 -0.000247922 6.3054e-18 
0.000209608 -5.19914e-10 -7.32369e-10 -1.47322e-09 -8.57116e-06 -8.06788e-05 -0.000193269 -0.0759706 
0.0004761 -6.34359e-10 -2.02918e-09 -2.52383e-09 -2.34131e-05 -0.000257928 -0.000399494 -0.0202593 
0.00110341 -5.18739e-10 -4.83318e-09 -6.90086e-09 -6.78096e-05 -0.000631793 -0.00090208 3.72629e-16 
0.0003205 -7.18416e-11 -4.35658e-10 -1.19487e-09 -1.80755e-05 -0.000109612 -0.000300631 5.43343e-18 
0.0003164 4.86547e-10 8.37935e-10 -5.59177e-09 -1.37116e-06 -3.32991e-05 -0.00031464 0.0387981 
0.000147936 -5.43412e-11 -7.07846e-10 -9.93892e-10 -6.5818e-06 -8.57343e-05 -0.00012038 1.04625e-17 
0 0 0 0 0 0 0 0 
0.00112499 -4.79195e-10 -5.53847e-09 -5.3261e-09 -7.00222e-05 -0.000809307 -0.000778274 -8.33081e-16 
0.000125305 -5.71291e-11 -1.11856e-09 -3.18864e-10 -6.14721e-06 -0.00012036 -3.43104e-05 0 
0.000575292 -4.87851e-10 -5.73056e-09 -2.46711e-09 -1.69992e-05 -0.000549173 -0.000170529 0.0247593 
0.000403152 -6.50421e-11 -6.79789e-09 -1.23656e-09 -3.79491e-06 -0.000396625 -7.21474e-05 -1.41749e-18 
0.000161979 -8.36729e-11 -1.02537e-09 -6.88701e-10 -1.09475e-05 -0.000134156 -9.01077e-05 -4.52076e-17 
0.000628966 -2.62209e-10 -4.25789e-09 -2.34493e-09 -3.38788e-05 -0.000550142 -0.000302977 1.78575e-16 
0.000520889 -2.03231e-10 -4.60941e-09 -2.69033e-09 -1.98206e-05 -0.000449543 -0.00026238 1.26368e-17 
0 0 0 0 0 0 0 0 
0.000170968 -5.59918e-11 -1.67582e-09 -6.68589e-10 -5.30308e-06 -0.00015872 -6.33233e-05 3.27254e-17 
7.92211e-05 -3.05222e-11 -7.18248e-10 -3.82043e-10 -2.97013e-06 -6.98931e-05 -3.71768e-05 -8.40581e-18 
0.000119301 -1.23463e-09 -6.21068e-10 -8.89323e-10 -2.25568e-06 -0.00011117 -4.32294e-05 -0.0433343 
0.000441254 -1.23274e-10 -3.86383e-09 -5.01097e-11 -5.72906e-06 -0.00043343 -8.25289e-05 -0.053749 
0.000280713 -2.1037e-09 -4.64528e-09 -5.45248e-10 -2.18312e-06 -0.000275419 -5.42148e-05 0.357841 
0.000809328 -9.09062e-10 -1.9112e-08 -4.88288e-10 -2.22711e-08 -0.000809253 -1.0953e-05 0.0130067 
0.000390897 -1.24298e-10 -1.92802e-09 -1.40895e-09 -2.03193e-05 -0.00031518 -0.000230325 2.25936e-16 
0 0 0 0 0 0 0 0 
0.000168091 -3.85661e-10 -4.20737e-09 3.60569e-10 -2.01046e-07 -0.000167434 -1.48493e-05 0.00237668 
0.000548404 0 -4.11303e-09 2.61857e-11 6.81948e-23 -0.000548393 3.49135e-06 8.0621e-17 
0.00041286 -2.44635e-11 -1.15185e-08 8.96575e-10 -8.74202e-07 -0.000411614 3.2039e-05 5.11256e-17 
0.00023255 -2.71745e-11 -2.1511e-09 3.84572e-10 -2.89169e-06 -0.000228903 4.0923e-05 -9.19201e-18 
0.00160771 -4.24796e-10 -1.52015e-08 6.60935e-09 -4.11871e-05 -0.0014739 0.000640825 -4.02015e-16 
7.30266e-05 -4.54966e-09 -1.21091e-09 -3.17811e-10 -1.38859e-06 -6.80676e-05 2.64151e-05 0.557766 
0 0 0 0 0 0 0 0 
0 0 0 0 0 0 0 0 
0.000694023 -1.56069e-10 -1.12424e-08 2.57992e-09 -9.38963e-06 -0.000676379 0.000155216 -2.13077e-16 
0.000318405 -9.10142e-11 -2.95117e-09 1.42358e-09 -8.84101e-06 -0.000286673 0.000138285 0 
0.000221602 -7.35611e-11 -2.09063e-09 9.67638e-10 -7.07252e-06 -0.000201003 9.30334e-05 1.4534e-17 
0.000415052 4.56557e-10 -2.74944e-09 1.09887e-09 -1.46998e-05 -0.000387043 0.000149166 0.0289604 
0 0 0 0 0 0 0 0 
0.00127032 -5.15253e-09 -8.32182e-09 5.32136e-09 -5.93508e-05 -0.00115702 0.000521035 1.74118 
0.000167191 -6.71291e-10 -8.48441e-10 1.16279e-09 -9.83667e-06 -0.000150223 7.2728e-05 0.039552 
0.000298194 -2.77052e-09 -8.3562e-09 1.6907e-10 -7.33666e-07 -0.000296595 3.08276e-05 0.115099 
0.000240217 -4.5491e-11 -2.79779e-09 1.0002e-09 -3.67744e-06 -0.000226171 8.0855e-05 8.72873e-19 
0.000524225 -8.89683e-10 -2.72262e-09 1.73765e-09 -2.96388e-05 -0.000401339 0.000335948 -0.012289 
0.00362588 -8.10801e-10 -4.86253e-09 1.3541e-08 -0.00020401 -0.00122349 0.00340712 6.95516e-16 
0.000160716 -4.667e-11 -3.96385e-10 1.24885e-09 -5.72096e-06 -4.85902e-05 0.000153088 -1.69423e-16 
0.00131195 -3.33309e-09 -5.10532e-09 1.18195e-08 -3.26741e-05 -0.000307791 0.00127492 1.48084 
0.000171958 -4.45221e-10 -9.68605e-10 3.27204e-09 -1.18169e-06 -1.59925e-05 0.000171209 0.00216674 
0.0003924 -1.51473e-12 -1.87367e-11 2.943e-09 -2.0196e-07 -2.49817e-06 0.000392392 1.15173e-17 
0.000377167 -9.61353e-11 -6.72869e-10 1.29651e-09 -2.47693e-05 -0.000173365 0.000334045 1.39101e-17 
0.000812539 -3.81995e-10 -3.5591e-09 5.08172e-09 -4.99344e-05 -0.000465246 0.000664284 0 
0.000922495 -3.0415e-10 -2.90142e-09 5.67791e-09 -4.39533e-05 -0.000419289 0.000820525 -3.9946e-16 
0.00064912 -2.36745e-10 -1.89563e-09 4.81388e-09 -2.96725e-05 -0.000237588 0.000603348 1.73226e-16 
0.000267215 -8.62205e-11 -7.90443e-10 1.96803e-09 -1.08544e-05 -9.95099e-05 0.000247758 0 
0.00157155 -3.69775e-10 -5.84988e-09 1.53799e-08 -3.53073e-05 -0.000558564 0.00146852 1.59495e-15 
0.000465574 -9.69883e-10 -5.5981e-10 4.9672e-09 -1.01303e-05 -0.000145642 0.000442091 -0.0160707 
0.000707127 -1.05082e-09 -2.33264e-09 7.44442e-09 -1.21874e-05 -0.000179609 0.000683828 -0.0183676 
0.000298493 3.46345e-10 -1.19533e-09 5.03755e-09 -1.50363e-06 -3.87704e-05 0.000295961 -0.00385138 
0 0 0 0 0 0 0 0 
0.000922674 -2.71575e-10 -2.28733e-09 1.15141e-08 -2.13396e-05 -0.000179732 0.000904747 -7.68697e-16 
7.64694e-05 -7.0293e-12 -3.13662e-10 1.866e-09 -2.84075e-07 -1.26761e-05 7.5411e-05 6.98187e-18 
0.000333272 -7.99291e-11 -1.65849e-09 3.77373e-09 -6.46107e-06 -0.000134064 0.000305049 2.33919e-16 
0.000451667 1.45924e-10 7.22519e-10 1.965e-09 -2.20338e-05 0.000132429 0.000431254 -0.0258445 
0.000684112 -2.63433e-09 3.07024e-09 1.06647e-08 -4.84666e-06 0.000134752 0.000670692 0.301259 
0.000364093 -8.9129e-11 8.13468e-10 4.58561e-09 -6.96669e-06 6.3584e-05 0.00035843 -1.82302e-16 
0.00128261 -7.16895e-10 3.65008e-09 1.59043e-08 -2.9664e-05 0.000249845 0.00125769 -0.0416071 
4.85206e-05 -2.07514e-11 2.50602e-10 4.29364e-10 -2.02354e-06 2.44371e-05 4.18686e-05 -5.26458e-19 
0 0 0 0 0 0 0 0 
0 0 0 0 0 0 0 0 
8.25066e-05 -1.24413e-11 3.12076e-10 1.29696e-09 -7.69459e-07 1.93011e-05 8.02136e-05 -8.0137e-18 
0.000239571 -2.25586e-09 1.73106e-10 4.0256e-09 -3.34697e-06 6.08537e-05 0.000231689 0.227231 
0.000412541 -1.35107e-10 1.61329e-09 4.04371e-09 -1.27962e-05 0.000152798 0.000382987 8.18134e-18 
4.44136e-05 -1.40303e-11 1.01559e-10 3.50818e-10 -1.70493e-06 1.23412e-05 4.26304e-05 -6.56051e-19 
0.00105332 -4.70653e-10 5.79048e-09 9.07648e-09 -4.60024e-05 0.00056597 0.00088715 -2.70178e-16 
0.000195251 1.09204e-09 2.56699e-10 1.62864e-09 -8.92525e-06 7.14647e-05 0.000181483 0.0562172 