ITEM: TIMESTEP
165
ITEM: NUMBER OF SURFS
6916
ITEM: BOX BOUNDS oo rr rr
-0.35 0.35
-0.25 0.25
-0.25 0.25
ITEM: SURFS f_save[1] f_save[2] f_save[3] f_save[4] f_save[5] f_save[6] f_save[7] f_save[8] 
0.00720475 -5.40581e-08 -9.18211e-10 -2.42809e-09 -0.00720475 0 0 4.26701 
0 0 0 0 0 0 0 0 
0 0 0 0 0 0 0 0 
0 0 0 0 0 0 0 0 
0 0 0 0 0 0 0 0 
0 0 0 0 0 0 0 0 
0 0 0 0 0 0 0 0 
0 0 0 0 0 0 0 0 
0.0100264 -2.38128e-08 0 0 -0.0100264 0 0 0 
0 0 0 0 0 0 0 0 
0 0 0 0 0 0 0 0 
0 0 0 0 0 0 0 0 
0.0150017 -3.65667e-08 0 0 -0.0150017 0 0 0 
0.00929648 -2.20792e-08 0 0 -0.00929648 0 0 0 
0 0 0 0 0 0 0 0 
0 0 0 0 0 0 0 0 
0 0 0 0 0 0 0 0 
0.0133376 -3.16767e-08 0 0 -0.0133376 0 0 0 
0 0 0 0 0 0 0 0 
0 0 0 0 0 0 0 0 
0.0104594 -2.48411e-08 0 0 -0.0104594 0 0 0 
0 0 0 0 0 0 0 0 
0 0 0 0 0 0 0 0 
0 0 0 0 0 0 0 0 
0 0 0 0 0 0 0 0 
0 0 0 0 0 0 0 0 
0 0 0 0 0 0 0 0 
0.00652085 -1.5487e-08 0 0 -0.00652085 0 0 0 
0 0 0 0 0 0 0 0 
0.00842103 -2.10527e-08 0 0 -0.00842103 0 0 8.04128e-15 
0.00268046 -1.27322e-07 -1.27271e-10 -9.04858e-10 -0.00268046 0 0 0.473121 
0.0044028 -3.78641e-07 9.78171e-10 -2.56108e-09 -0.0044028 0 0 0.692341 
0.00315431 -1.4983e-07 0 0 -0.00315431 0 0 0 
0 0 0 0 0 0 0 0 
0 0 0 0 0 0 0 0 
0 0 0 0 0 0 0 0 
0.000841328 1.99816e-09 0 0 0.000841328 0 0 0 
0.002438 2.97131e-09 0 0 0.002438 0 0 0 
0 0 0 0 0 0 0 0 
0 0 0 0 0 0 0 0 
0 0 0 0 0 0 0 0 
0 0 0 0 0 0 0 0 
0 0 0 0 0 0 0 0 
0 0 0 0 0 0 0 0 
0.000630723 1.49797e-09 0 0 0.000630723 0 0 0 
0 0 0 0 0 0 0 0 
0 0 0 0 0 0 0 0 
0.000787182 1.86956e-09 0 0 0.000787182 0 0 0 
0 0 0 0 0 0 0 0 
0 0 0 0 0 0 0 0 
0 0 0 0 0 0 0 0 
0 0 0 0 0 0 0 0 
0 0 0 0 0 0 0 0 
0 0 0 0 0 0 0 0 
0 0 0 0 0 0 0 0 
0.00143966 3.50918e-09 0 0 0.00143966 0 0 0 
0.00143531 3.49858e-09 0 0 0.00143531 0 0 0 
0.000848226 2.06755e-09 -1.23301e-09 2.353e-09 0.000848226 0 0 -0.169117 
0 0 0 0 0 0 0 0 
0 0 0 0 0 0 0 0 
0 0 0 0 0 0 0 0 
0 0 0 0 0 0 0 0 
1.23404e-05 -2.81365e-07 2.43929e-07 2.56069e-07 0 8.72597e-06 8.72597e-06 0.0177179 
1.11131e-05 -2.13633e-07 -9.70353e-08 -1.05706e-07 0 -7.85818e-06 -7.85818e-06 0.0288926 
0.000169519 -1.2301e-08 9.66258e-08 5.95816e-10 0 0.000169519 0 0.0375752 
0.000282192 -1.68731e-08 -1.60849e-07 -9.75558e-09 0 -0.000282192 0 0.0741316 
0.000222077 7.90306e-09 1.26584e-07 -1.32899e-09 0 0.000222077 0 0.00315616 
0.000371139 -1.90934e-08 -2.11549e-07 -4.75865e-09 0 -0.000371139 0 0.044963 
0.000303401 6.61012e-10 1.72938e-07 6.09762e-09 0 0.000303401 0 -0.00507846 
0.000276922 -4.635e-09 -6.00028e-09 1.57845e-07 0 0 0.000276922 0.00907074 
0.000242921 -1.30759e-08 3.26325e-09 1.42109e-07 0 0 0.000242921 0.055128 
0.000166179 5.30443e-09 -7.06148e-10 -9.72148e-08 0 0 -0.000166179 -0.00142253 
0.00029543 9.17354e-09 -1.02988e-10 1.72827e-07 0 0 0.00029543 -0.00670267 
0.000226842 -7.85709e-09 1.293e-07 1.55827e-09 0 0.000226842 0 0.0358686 
0.000120884 -1.66001e-08 7.07169e-08 -4.85838e-09 0 0.000120884 0 0.0545644 
6.64817e-05 -3.06499e-08 -4.26321e-09 -3.78946e-08 0 0 -6.64817e-05 0.0990244 
0.000254582 1.71061e-09 1.45112e-07 -2.80837e-10 0 0.000254582 0 0.00228336 
0.000179691 -4.09263e-09 -1.02424e-07 -1.97484e-09 0 -0.000179691 0 -0.0010831 
0.00028975 -2.34813e-08 -7.29099e-09 1.65158e-07 0 0 0.00028975 0.0815782 
0.000129415 4.01082e-09 -2.58417e-10 7.37665e-08 0 0 0.000129415 0.00385839 
0.000201444 -1.7419e-10 4.87558e-09 -1.14823e-07 0 0 -0.000201444 -0.00171099 
0.000146936 1.78782e-09 -8.37538e-08 -7.87662e-09 0 -0.000146936 0 -9.39998e-05 
0.000177304 -1.80528e-08 1.01063e-07 9.14399e-10 0 0.000177304 0 0.0653186 
0.00016474 -9.2181e-10 2.63951e-10 -9.39019e-08 0 0 -0.00016474 -0.00246332 
0.00018997 -4.15897e-09 1.11133e-07 -2.42933e-09 0 0.00018997 0 -0.00075126 
0.000222415 5.43095e-09 -2.89852e-09 1.30113e-07 0 0 0.000222415 -0.00106712 
0.000271696 3.26087e-10 -1.58942e-07 -3.34178e-09 0 -0.000271696 0 0.00390672 
0.00012885 3.86602e-10 2.63046e-09 -7.34443e-08 0 0 -0.00012885 0.000463833 
0.000141837 -1.31522e-09 -8.29748e-08 -2.23922e-10 0 -0.000141837 0 -0.000700074 
0.000178788 2.82375e-09 4.25687e-09 1.04591e-07 0 0 0.000178788 -0.00428323 
0.000151677 -1.32745e-08 4.51035e-09 -8.64557e-08 0 0 -0.000151677 0.0479581 
9.88801e-05 -1.33095e-08 -5.78448e-08 -1.82884e-09 0 -9.88801e-05 0 0.0346161 
0.000239833 3.22904e-09 -1.36705e-07 -1.03988e-08 0 -0.000239833 0 0.00271877 
0.000198154 3.8388e-10 -1.09983e-09 5.79599e-08 0 0 0.000198154 -0.00164612 
0.000113006 9.77896e-10 -7.36018e-10 6.44136e-08 0 0 0.000113006 -0.00047181 
0.000253954 -3.35893e-08 -4.53303e-10 -1.44754e-07 0 0 -0.000253954 0.101246 
0.00013019 -1.6998e-08 -6.31223e-10 7.42081e-08 0 0 0.00013019 0.0594459 
0.000145059 -1.68781e-08 -8.26838e-08 1.64647e-09 0 -0.000145059 0 0.0589869 
0.000223671 3.13888e-09 6.57923e-10 -1.27492e-07 0 4.3856e-11 -0.000223671 -0.00200671 
6.51257e-05 1.0603e-09 -3.71217e-08 3.22199e-09 0 -6.51257e-05 0 -0.000471293 
0.000114017 -3.1269e-08 -6.49898e-08 2.11652e-09 0 -0.000114017 0 0.0917746 
9.34715e-05 -3.96286e-10 -2.76175e-09 5.32788e-08 0 0 9.34715e-05 -0.000304231 
0.000293568 -2.32756e-09 1.67334e-07 6.0646e-09 0 0.000293568 0 0.0244918 
6.57991e-05 6.66747e-09 4.90617e-09 -3.75055e-08 0 0 -6.57991e-05 -0.00467644 
0.000151626 3.45126e-09 -8.64268e-08 1.09338e-09 0 -0.000151626 0 -0.00252077 
0.000200606 -5.79949e-09 6.54831e-09 -1.14345e-07 0 0 -0.000200606 0.0232486 
0.000223346 1.47942e-09 1.59163e-08 1.73265e-09 -4.24889e-07 0.000223346 0 -0.00741019 
0.000459523 2.62418e-10 8.39392e-09 9.96712e-11 -3.11665e-05 0.000457991 -2.08503e-05 -0.042936 
0.000210454 -3.72032e-11 3.39255e-09 -1.17718e-10 -2.30634e-06 0.000210315 -7.29772e-06 0 
0.00064197 -3.5889e-10 1.15455e-08 -6.07256e-10 -1.99185e-05 0.000640776 -3.37028e-05 -2.32445e-17 
8.94097e-05 -2.59221e-11 1.47387e-09 -1.66709e-11 -1.57217e-06 8.93902e-05 -1.01109e-06 0 
0 0 0 0 0 0 0 0 
0.00034554 -2.15384e-10 8.31226e-09 9.87447e-10 -1.82826e-07 0.00034551 4.60232e-06 -0.0253889 
0.000234731 -1.31821e-11 4.3567e-09 -7.91971e-10 -8.98288e-06 0.000234513 4.64156e-06 -0.0321138 
0.000474416 -9.23447e-11 7.64766e-09 2.65366e-10 -5.72466e-06 0.000474097 1.64507e-05 -2.27181e-17 
0.000413154 -1.71377e-10 2.94371e-08 1.76122e-09 -1.96802e-07 0.000413154 0 -0.0358686 
5.13603e-05 -6.96162e-12 0 3.65942e-09 -9.77068e-08 0 5.13603e-05 -2.57169e-18 
0.000146954 -2.56203e-09 1.84146e-09 2.41901e-09 -9.96696e-06 6.66789e-06 0.000146464 0.00721557 
8.19952e-05 -1.44947e-11 4.58642e-11 1.32177e-09 -8.98575e-07 2.84327e-06 8.1941e-05 3.24549e-18 
3.62034e-05 3.35524e-10 2.45613e-10 6.51039e-10 -1.12329e-06 1.90065e-06 3.6136e-05 -0.00157788 
0.000188393 -5.46198e-11 3.51269e-11 3.10557e-09 -3.31268e-06 2.13044e-06 0.000188352 1.27006e-17 
0 0 0 0 0 0 0 0 
0.000240949 -3.07143e-12 -7.73176e-11 5.80446e-09 -1.27487e-07 -3.20925e-06 0.000240928 1.08651e-18 
0.000144887 -1.02457e-10 -5.2941e-11 2.67483e-09 -5.54466e-06 -2.86499e-06 0.000144753 -3.39976e-17 
0 0 0 0 0 0 0 0 
0.000190092 -1.27048e-10 1.28766e-10 1.3544e-08 -9.05484e-08 0 0.000190092 0.00783116 
0.000257438 2.2585e-09 -1.83468e-08 1.84441e-09 -4.89744e-07 -0.000257437 0 -0.0109737 
0.000241791 -2.9776e-10 -4.37558e-09 1.99201e-10 -1.63991e-05 -0.000240985 1.0971e-05 8.6499e-18 
0.000337311 5.09848e-10 -5.43098e-09 5.56522e-10 -3.69655e-06 -0.000337088 1.16966e-05 0.0137112 
0.000346358 -2.41453e-10 -6.21673e-09 5.33574e-10 -1.07465e-05 -0.000345713 1.81835e-05 0.0105864 
0 0 0 0 0 0 0 0 
0 0 0 0 0 0 0 0 
0.000265589 -3.38551e-12 -6.39801e-09 -8.5224e-11 -1.40524e-07 -0.000265565 -3.53743e-06 2.49896e-17 
0.000138428 -9.78896e-11 -2.55557e-09 -5.05808e-11 -5.29746e-06 -0.000138299 -2.73726e-06 -5.66627e-18 
0 0 0 0 0 0 0 0 
0.000319961 -4.45745e-10 -2.2797e-08 2.4042e-09 -1.5241e-07 -0.000319961 0 0.00384537 
0.000362413 8.03923e-10 1.55751e-10 -2.58236e-08 -6.89447e-07 0 -0.000362412 0.000350654 
0.000240396 -2.96042e-10 -1.98052e-10 -4.35033e-09 -1.63045e-05 -1.09077e-05 -0.000239594 1.15332e-17 
0.000303765 -1.9949e-08 -1.60651e-09 -4.62871e-09 -3.32892e-06 -1.05334e-05 -0.000303564 1.8106 
6.85577e-05 -3.14583e-10 5.47543e-10 -1.25659e-09 -2.12714e-06 -3.59921e-06 -6.84301e-05 -0.000951074 
0.000237277 3.5819e-10 7.12756e-10 -3.92747e-09 -4.17225e-06 -2.68325e-06 -0.000237226 -0.0262534 
0 0 0 0 0 0 0 0 
0.000243068 -1.80562e-08 1.73866e-09 -5.82382e-09 -1.28608e-07 3.23747e-06 -0.000243046 1.49382 
0.00057026 -4.03261e-10 2.0837e-10 -1.05278e-08 -2.18232e-05 1.12763e-05 -0.00056973 -3.11645e-17 
0.000189272 -3.68415e-11 1.0587e-10 -3.05109e-09 -2.28389e-06 6.56311e-06 -0.000189144 -3.24545e-18 
0.000146699 -5.4378e-10 5.87538e-10 -1.04521e-08 -6.98788e-08 0 -0.000146699 -0.0039287 
0 0 0 0 0 0 0 0 
0 0 0 0 0 0 0 0 
0 0 0 0 0 0 0 0 
0 0 0 0 0 0 0 0 
0 0 0 0 0 0 0 0 
0 0 0 0 0 0 0 0 
0 0 0 0 0 0 0 0 
0 0 0 0 0 0 0 0 
0 0 0 0 0 0 0 0 
0 0 0 0 0 0 0 0 
0 0 0 0 0 0 0 0 
0 0 0 0 0 0 0 0 
0 0 0 0 0 0 0 0 
0 0 0 0 0 0 0 0 
0 0 0 0 0 0 0 0 
0 0 0 0 0 0 0 0 
0.000108243 -4.4294e-10 2.49968e-09 -6.71265e-11 -1.88797e-05 0.000106546 -2.86118e-06 8.92581e-18 
0 0 0 0 0 0 0 0 
0.000675285 -1.1059e-09 4.98729e-09 -4.04605e-10 -0.000145732 0.000657213 -5.33178e-05 0 
0.000723642 -2.32593e-09 1.23646e-08 -1.02593e-09 -0.000133337 0.000708816 -5.88124e-05 -4.08158e-16 
0.000791975 -1.93534e-09 1.49923e-08 -2.33125e-09 -0.000154394 0.000771637 -8.9242e-05 -0.00199423 
0.00059309 -8.48747e-10 4.02587e-09 -1.1665e-09 -0.000140187 0.000572439 -6.64655e-05 0.0386658 
0.000157354 -4.29071e-10 1.93641e-09 -2.9162e-10 -3.36787e-05 0.000151993 -2.28899e-05 -1.23278e-17 
0.000245358 -7.39116e-10 3.19423e-09 -4.39881e-10 -5.4821e-05 0.000236919 -3.26265e-05 0 
0.000228385 -6.03058e-11 2.6723e-09 -6.80991e-10 -5.32082e-05 0.000216906 -4.77536e-05 0.0331073 
0.000456435 -1.53478e-09 4.99762e-09 -1.12325e-09 -8.75985e-05 0.00044743 -2.1577e-05 0.0575506 
0.000180657 -5.13718e-10 2.02684e-09 -4.72287e-10 -4.32948e-05 0.000170817 -3.98031e-05 -2.20606e-17 
0.000158846 -5.32665e-10 2.98416e-09 1.12933e-10 -2.78931e-05 0.000156266 5.91374e-06 -2.74144e-18 
0.000534444 -1.82456e-08 3.89885e-09 5.39057e-10 -0.000112045 0.000520076 5.09622e-05 1.99073 
0.000253619 -3.66723e-10 5.90407e-09 1.5695e-09 -4.469e-05 0.000249474 9.37391e-06 0.0388727 
0.00120046 -2.80913e-09 1.06929e-08 2.15819e-09 -0.000299373 0.00113956 0.000230002 -3.57074e-16 
0.00130524 -2.09682e-09 8.49284e-09 1.28592e-09 -0.000309534 0.00125372 0.000189829 -4.94611e-16 
9.54933e-05 -2.75118e-10 1.16174e-09 1.95017e-10 -2.17177e-05 9.17078e-05 1.53946e-05 -8.26538e-18 
0.00103127 -2.89152e-09 1.35408e-08 1.67601e-09 -0.000213803 0.00100122 0.000123927 -1.49034e-16 
0.000236344 -4.96049e-10 2.43952e-09 2.08418e-10 -4.69298e-05 0.000230797 1.97179e-05 -1.98117e-17 
0.000199979 -3.91428e-10 3.90001e-09 -1.71366e-09 -3.58999e-05 0.000196488 9.7663e-06 0.039427 
0.00103936 -3.43108e-09 1.83049e-08 -1.28867e-09 -0.000203364 0.00100837 0.000148676 0.0405803 
0 0 0 0 0 0 0 0 
0.000530897 -3.57816e-09 1.14701e-09 5.77583e-09 -9.56264e-05 4.85683e-05 0.000519951 -0.0491486 
0.000298489 -5.04884e-10 2.49772e-10 2.05186e-09 -7.08262e-05 3.50386e-05 0.00028784 0 
0.000419319 -7.38463e-10 -1.24575e-09 7.43537e-09 -7.64117e-05 2.75572e-05 0.000411376 0.0219491 
0.000157642 -5.74278e-10 2.14927e-10 2.93612e-09 -3.01821e-05 1.12958e-05 0.000154312 -2.75147e-18 
0.00105854 -2.40396e-09 6.7199e-10 1.18528e-08 -0.000210084 5.87256e-05 0.00103582 -3.66009e-17 
0.000322579 -9.80477e-10 3.70992e-10 4.60633e-09 -6.69504e-05 2.53327e-05 0.000314536 0 
0.000893533 -1.78596e-08 1.53519e-09 5.95759e-09 -0.0001966 0.000197266 0.000849021 2.30882 
0.000171413 -2.81622e-10 1.54959e-10 1.15734e-09 -4.01897e-05 2.21139e-05 0.000165161 -1.49422e-17 
6.19346e-05 -2.11827e-10 4.40328e-11 1.16353e-09 -1.10855e-05 2.30436e-06 6.08909e-05 -1.0274e-18 
0.000966475 -2.30941e-09 2.66878e-09 9.0781e-09 -0.000229157 0.000264816 0.000900796 -6.75322e-16 
0.000491938 -9.6315e-10 4.49415e-10 3.73558e-09 -0.000106391 0.000112775 0.000466868 -0.0879956 
0.000224128 -1.06811e-09 -5.8731e-10 4.54704e-09 -4.20707e-05 -1.3386e-05 0.000219736 -0.0231741 
0.000838704 -1.41864e-09 -7.01817e-10 5.76538e-09 -0.00019901 -9.84525e-05 0.000808781 2.36847e-16 
0.000796113 -1.4571e-09 -1.74698e-09 5.68902e-09 -0.000189329 -0.000226994 0.000739205 6.80242e-18 
0.0003528 -5.42892e-10 -1.90937e-10 2.35355e-09 -7.90512e-05 -2.78026e-05 0.000342704 7.62309e-18 
0.000600413 -1.57343e-09 -1.60347e-09 6.23568e-09 -0.000142532 -0.000145254 0.000564873 -7.58793e-17 
6.0314e-05 -1.403e-10 -1.34134e-10 6.46053e-10 -1.25441e-05 -1.19928e-05 5.77633e-05 4.6808e-18 
0.000445821 -9.61127e-10 -4.01227e-10 4.72841e-09 -8.8499e-05 -3.69443e-05 0.000435384 0 
0.000245353 -2.18165e-09 6.79381e-10 4.00914e-09 -4.75043e-05 -2.36922e-05 0.000239542 -0.012506 
0.00030187 -9.65428e-09 -7.13693e-10 1.96265e-08 -5.24119e-05 -3.23345e-06 0.000297268 0.18867 
0.000300771 -1.17177e-09 -1.45194e-09 7.08768e-09 -5.33417e-05 -2.14333e-05 0.000295226 0.00606097 
0.000448483 -1.96278e-09 -1.04199e-08 -2.91188e-09 -7.8224e-05 -0.000441449 1.18547e-05 -0.0091792 
0.000473981 -1.42369e-09 -5.62842e-09 1.13601e-09 -0.000114068 -0.000450957 9.10184e-05 1.67782e-17 
0 0 0 0 0 0 0 0 
0.000292021 -9.38616e-10 -4.98966e-09 4.14006e-10 -5.38073e-05 -0.000286038 2.37334e-05 -2.10081e-17 
0.000362559 -1.15665e-10 -7.06235e-09 6.79098e-10 -7.06803e-05 -0.000353248 4.08541e-05 0.00198548 
0 0 0 0 0 0 0 0 
0.000299055 -8.1546e-10 -3.6802e-09 5.54231e-10 -6.40073e-05 -0.000288867 4.35028e-05 -2.46555e-17 
0 0 0 0 0 0 0 0 
0.000715103 -1.09637e-08 -6.07438e-09 5.4154e-10 -0.000166602 -0.00067916 0.000149523 1.43507 
0.000132456 -2.92209e-10 -1.49253e-09 7.1976e-11 -2.54208e-05 -0.000129843 6.26156e-06 9.1088e-18 
0.00073616 -2.09335e-09 -8.25916e-09 1.92452e-09 -0.000176422 -0.00069606 0.000162193 0 
0.000499357 -4.59467e-10 -9.59449e-09 -4.48876e-10 -8.76864e-05 -0.000491246 -1.85908e-05 -0.0104499 
0 0 0 0 0 0 0 0 
0.00029087 -8.0736e-11 -6.8506e-09 -1.30848e-09 -5.12541e-05 -0.000286117 -1.07507e-05 0.0247396 
0.00100327 -2.34769e-09 -8.93642e-09 -1.80368e-09 -0.000250198 -0.00095237 -0.000192221 2.23171e-17 
0 0 0 0 0 0 0 0 
0.000378466 -1.09037e-09 -4.6043e-09 -7.72903e-10 -8.60733e-05 -0.000363463 -6.10129e-05 8.26538e-18 
0 0 0 0 0 0 0 0 
0.000471677 -2.2973e-09 -4.7261e-09 1.02748e-09 -9.36593e-05 -0.000460607 -3.93511e-05 -0.0402633 
0 0 0 0 0 0 0 0 
0.000274872 -9.5722e-10 -4.24519e-09 -3.63186e-09 -5.37824e-05 -0.000266676 -3.93193e-05 0.00346903 
0.000718472 -1.72899e-09 -8.08271e-09 -1.36338e-09 -0.000148286 -0.000693211 -0.000116929 3.05319e-16 
0 0 0 0 0 0 0 0 
0 0 0 0 0 0 0 0 
3.45985e-05 -1.10472e-10 -3.98406e-11 -5.94744e-10 -6.30481e-06 -2.27377e-06 -3.39431e-05 7.4696e-19 
0.000224416 -8.09319e-10 -1.73974e-09 -4.07646e-09 -4.29668e-05 -1.60806e-05 -0.000219677 0.0133513 
0.000860273 -2.15352e-08 -2.55205e-09 -5.54748e-09 -0.000170734 -4.77261e-05 -0.000841808 2.53509 
0.000667131 -3.25e-09 -4.90588e-09 -8.93294e-09 -0.000138461 -5.23909e-05 -0.000650498 0.0262581 
0.000697825 -1.2562e-09 -2.30124e-09 -7.33548e-09 -0.000153539 -0.000154059 -0.000663062 0.00812932 
0 0 0 0 0 0 0 0 
0.000603901 -2.06545e-09 -4.29347e-10 -1.13452e-08 -0.000108091 -2.24689e-05 -0.000593724 -4.10962e-17 
0 0 0 0 0 0 0 0 
0 0 0 0 0 0 0 0 
0 0 0 0 0 0 0 0 
0.00174926 -2.95881e-09 1.46376e-09 -1.20247e-08 -0.000415069 0.00020534 -0.00168685 -1.41007e-15 
0.000394679 -7.22371e-10 8.66077e-10 -2.82038e-09 -9.38614e-05 0.000112534 -0.000366467 -1.70061e-17 
0 0 0 0 0 0 0 0 
0.000101526 -2.66057e-10 2.71136e-10 -1.05441e-09 -2.41013e-05 2.45615e-05 -9.55164e-05 -7.11369e-18 
0.000176847 -4.11373e-10 3.93293e-10 -1.89429e-09 -3.67806e-05 3.51642e-05 -0.000169368 -2.3404e-18 
0.000434091 -2.18287e-10 7.96181e-10 -4.71544e-09 -8.61704e-05 3.59723e-05 -0.000423928 -0.0245805 
0.00113282 -1.165e-09 2.67995e-09 -1.97018e-08 -0.000219332 0.000109389 -0.00110599 -0.0309401 
0.000179509 -1.12918e-09 1.08691e-09 -1.2477e-08 -3.11671e-05 1.9228e-06 -0.000176773 0.0103202 
0.000287389 -2.73723e-09 -2.20163e-09 -6.74064e-09 -5.09684e-05 2.04797e-05 -0.000282091 -0.0151207 
0.000653003 -2.55233e-10 2.76198e-09 -4.28581e-11 -3.67412e-05 0.000613605 0.000220344 -0.0171815 
0.00210762 -4.73698e-10 9.27134e-09 2.84703e-09 -0.000102817 0.00201237 0.000617955 7.67017e-17 
0 0 0 0 0 0 0 0 
0 0 0 0 0 0 0 0 
0.000223993 -7.76035e-12 6.24927e-09 4.86428e-10 -2.77316e-07 0.000223317 1.73825e-05 9.35404e-18 
0.00140107 -3.57116e-10 4.81616e-09 2.49952e-09 -9.20111e-05 0.00124089 0.000644003 1.61863e-16 
0.00035648 -1.46244e-10 2.59702e-09 1.09661e-09 -1.84682e-05 0.000327962 0.000138484 4.13204e-17 
0.00515594 -1.14276e-09 2.29196e-08 1.32789e-08 -0.00022223 0.00445712 0.00258232 -1.30315e-15 
0.000394302 -1.6125e-10 2.92414e-09 1.15148e-09 -2.02049e-05 0.000366399 0.000144282 0 
0 0 0 0 0 0 0 0 
0.000298196 -8.25866e-11 2.91827e-09 1.10999e-09 -7.88486e-06 0.000278618 0.000105975 -1.24957e-18 
0 0 0 0 0 0 0 0 
0 0 0 0 0 0 0 0 
0 0 0 0 0 0 0 0 
5.48729e-05 -4.93599e-12 1.3406e-09 2.15207e-10 -1.99483e-07 5.41789e-05 8.69734e-06 -1.58682e-18 
0.000790594 -2.90408e-10 5.31152e-09 3.78284e-09 -3.51742e-05 0.000643331 0.000458178 -1.98154e-16 
0 0 0 0 0 0 0 0 
0.000333473 -6.28002e-11 1.65353e-09 6.37269e-10 -1.18104e-05 0.000310968 0.000119847 -4.92279e-18 
0 0 0 0 0 0 0 0 
0 0 0 0 0 0 0 0 
0.000478306 -1.27529e-10 5.15587e-09 -1.22272e-09 -1.15081e-05 0.000465263 -0.000110338 -9.4485e-18 
0.000987668 -2.69272e-09 1.06047e-08 -2.75047e-09 -1.96535e-05 0.000965643 -0.000206483 -0.00122802 
0 0 0 0 0 0 0 0 
0.00803332 -4.12248e-09 5.30408e-08 -3.14096e-08 -0.000536043 0.00689685 -0.00408416 -2.61401e-15 
0.000454913 -2.56097e-11 7.55175e-09 -1.0032e-09 -1.52927e-06 0.000450949 -5.99058e-05 -9.37859e-17 
0.000599276 -8.55555e-11 4.80039e-09 -1.26082e-09 -1.03288e-05 0.000579531 -0.000152214 0 
5.94031e-05 -1.08216e-09 4.31515e-10 -5.74834e-10 -1.55628e-06 5.58046e-05 -2.03016e-05 -0.0102442 
0.00151939 5.63862e-10 1.35009e-08 -7.83958e-09 -5.78151e-05 0.00131128 -0.000765344 0.0207176 
0.000222372 -9.93625e-11 1.91619e-09 -1.22246e-09 -9.71185e-06 0.000187292 -0.000119486 -1.0234e-17 
0 0 0 0 0 0 0 0 
0.00235768 -4.78333e-10 9.02979e-09 -3.07773e-09 -0.000118066 0.00222881 -0.000759672 -8.27013e-16 
0.00116737 -2.67751e-10 4.45327e-09 -1.62371e-09 -6.58361e-05 0.001095 -0.000399247 3.86181e-17 
0.000595132 1.18591e-09 1.14731e-08 -2.55684e-09 -1.6261e-06 0.000593567 -4.30928e-05 0.0490656 
0 0 0 0 0 0 0 0 
0.00796635 -2.03055e-09 2.73841e-08 -1.4212e-08 -0.000523174 0.00705554 -0.00366174 -3.45309e-15 
0 0 0 0 0 0 0 0 
0.00564181 -2.84221e-10 1.656e-09 -5.54724e-09 -0.000276655 0.00161192 -0.00539955 3.05751e-16 
0.000865067 -1.329e-10 1.66579e-09 -9.26867e-09 -2.19368e-05 0.000256454 -0.000825888 0.0159543 
0.000135234 9.11878e-10 -1.68838e-09 -2.88178e-09 -1.65475e-06 1.81207e-05 -0.000134004 -0.0293964 
0.00124276 -6.50404e-10 6.13373e-09 -7.19001e-09 -8.53241e-05 0.000804661 -0.000943231 8.79093e-16 
0.00229442 -5.30113e-10 3.5696e-09 -8.45365e-09 -0.000132326 0.00089104 -0.00211019 9.80111e-17 
0 0 0 0 0 0 0 0 
0 0 0 0 0 0 0 0 
0.000508966 8.32828e-10 8.07739e-10 -4.07532e-09 -2.08124e-05 0.000195903 -0.000469293 0.0601199 
0 0 0 0 0 0 0 0 
0.00137441 -1.20802e-09 -3.05981e-09 -1.63442e-08 -2.89119e-05 0.000372783 -0.00132257 2.25343 
0 0 0 0 0 0 0 0 
0.00130369 -4.36495e-09 1.34297e-08 -1.91033e-08 -1.38903e-05 0.000291577 -0.00127059 1.62588 
0 0 0 0 0 0 0 0 
0 0 0 0 0 0 0 0 
0.00129838 -2.1758e-09 6.89672e-09 -1.97153e-08 -2.00428e-05 0.000398538 -0.00123554 0.00171855 
0 0 0 0 0 0 0 0 
9.21959e-05 2.40267e-13 -2.23548e-12 -5.36746e-10 4.12699e-08 -3.83981e-07 -9.21951e-05 -1.79848e-17 
0.000494141 -2.52669e-10 -2.05165e-09 -4.23731e-09 -1.85003e-05 -0.0001257 -0.000477528 0.0840138 
8.61865e-05 -1.04963e-11 -1.9308e-10 -1.47391e-09 -6.08556e-07 -1.11944e-05 -8.54542e-05 3.03528e-18 
0.000501845 -1.12657e-10 -1.34576e-09 -5.30502e-09 -1.03278e-05 -0.000123372 -0.000486335 -9.59874e-17 
0.000893613 -8.60271e-09 -4.09872e-09 -8.70723e-09 -2.22251e-05 -0.000242356 -0.000859834 1.20706 
0.000849531 7.2875e-10 -1.63875e-09 -4.19075e-09 -3.49855e-05 -0.000338655 -0.000778326 0.142043 
0.000268647 -1.38775e-10 -1.14223e-09 -1.70061e-09 -1.81569e-05 -0.000149447 -0.000222503 0 
0 0 0 0 0 0 0 0 
0.000503504 -1.10992e-10 -1.54436e-09 -8.49002e-09 -6.47562e-06 -9.01029e-05 -0.000495334 -8.55232e-17 
0.000906942 -2.55652e-10 -3.67159e-09 -8.72229e-09 -2.44916e-05 -0.000351739 -0.000835598 0 
0 0 0 0 0 0 0 0 
0.000508141 -1.2604e-09 -1.77544e-09 -3.57143e-09 -2.07786e-05 -0.000195585 -0.000468531 -0.184171 
0.000633558 -5.96611e-10 -2.06324e-09 -3.78433e-09 -3.11565e-05 -0.000343232 -0.000531618 -0.00414773 
0 0 0 0 0 0 0 0 
0 0 0 0 0 0 0 0 
0.000310218 2.96362e-10 3.63692e-09 -5.77969e-09 -1.34438e-06 -3.26485e-05 -0.000308492 0.0914672 
0 0 0 0 0 0 0 0 
0 0 0 0 0 0 0 0 
0.000169104 -7.2031e-11 -8.32525e-10 -8.00601e-10 -1.05255e-05 -0.000121652 -0.000116988 -2.29499e-17 
0 0 0 0 0 0 0 0 
0.000758433 -9.79539e-10 -7.32998e-09 -3.94316e-09 -2.24108e-05 -0.000724 -0.000224816 0.0600226 
0.000477738 -7.70754e-11 -8.05555e-09 -1.46533e-09 -4.49699e-06 -0.000470004 -8.54953e-05 3.05452e-18 
0 0 0 0 0 0 0 0 
0 0 0 0 0 0 0 0 
0.00081703 -3.18774e-10 -7.22999e-09 -4.21986e-09 -3.10891e-05 -0.000705122 -0.000411551 0 
0 0 0 0 0 0 0 0 
0 0 0 0 0 0 0 0 
0 0 0 0 0 0 0 0 
0 0 0 0 0 0 0 0 
0.000562607 -6.30104e-11 -4.76703e-09 -9.07685e-10 -7.30466e-06 -0.000552631 -0.000105226 4.85527e-17 
0.000572155 -5.08583e-09 -9.48901e-09 -9.72951e-10 -4.44967e-06 -0.000561365 -0.000110502 0.867495 
0.00186997 -2.20373e-09 -4.41584e-08 -1.15431e-09 -5.14581e-08 -0.0018698 -2.53073e-05 0.0315314 
0 0 0 0 0 0 0 0 
0 0 0 0 0 0 0 0 
9.54542e-05 -1.19446e-09 -2.42877e-09 6.6369e-10 -1.14168e-07 -9.5081e-05 -8.43249e-06 0.0352186 
0.000171984 0 -1.28988e-09 8.21206e-12 2.13865e-23 -0.000171981 1.09492e-06 0 
0.000364848 -2.16187e-11 -1.0179e-08 7.92312e-10 -7.7254e-07 -0.000363747 2.83132e-05 3.64807e-17 
0.000563758 -6.58776e-11 -5.2148e-09 9.32295e-10 -7.01016e-06 -0.000554916 9.92073e-05 -2.22837e-17 
0 0 0 0 0 0 0 0 
4.05242e-05 -1.16095e-11 -5.69087e-10 2.20847e-10 -7.70562e-07 -3.77723e-05 1.46584e-05 0 
0 0 0 0 0 0 0 0 
0 0 0 0 0 0 0 0 
0.000599079 -1.34718e-10 -9.70439e-09 2.22698e-09 -8.10511e-06 -0.000583848 0.000133982 -2.39377e-16 
0.000376583 -1.07644e-10 -3.49039e-09 1.68369e-09 -1.04564e-05 -0.000339052 0.000163551 0 
0 0 0 0 0 0 0 0 
0.000268597 1.29201e-09 -1.78883e-09 7.84539e-10 -9.51282e-06 -0.000250471 9.65311e-05 0.070207 
0 0 0 0 0 0 0 0 
0.00270341 -1.23526e-08 -1.74763e-08 1.16854e-08 -0.000126307 -0.00246231 0.00110883 4.22105 
0.000405312 -1.62737e-09 -2.05683e-09 2.81889e-09 -2.38465e-05 -0.000364176 0.00017631 0.0958836 
0.000359041 -6.69139e-09 -1.01409e-08 -6.41634e-10 -8.83373e-07 -0.000357116 3.7118e-05 0.279028 
3.90115e-05 -7.38778e-12 -4.54364e-10 1.62433e-10 -5.9722e-07 -3.67303e-05 1.31309e-05 2.11606e-18 
0 0 0 0 0 0 0 0 
0.00879001 -1.96558e-09 -1.1788e-08 3.28266e-08 -0.00049457 -0.00296603 0.00825969 1.6861e-15 
0 0 0 0 0 0 0 0 
0.00287756 -8.0068e-09 -1.1685e-08 2.57888e-08 -7.16656e-05 -0.000675091 0.00279633 3.58992 
0.000127127 -1.73898e-09 -9.93756e-10 2.38332e-09 -8.73612e-07 -1.18231e-05 0.000126573 0.029663 
0 0 0 0 0 0 0 0 
0 0 0 0 0 0 0 0 
0 0 0 0 0 0 0 0 
0.00215064 -7.09075e-10 -6.76417e-09 1.32371e-08 -0.00010247 -0.000977502 0.00191292 -9.68388e-16 
0.00157362 -5.73928e-10 -4.59546e-09 1.167e-08 -7.19333e-05 -0.000575972 0.00146266 4.19941e-16 
0.000191209 -6.16959e-11 -5.65609e-10 1.40824e-09 -7.76699e-06 -7.12053e-05 0.000177286 0 
0.00325896 -7.6681e-10 -1.2131e-08 3.18935e-08 -7.32173e-05 -0.0011583 0.00304529 3.83905e-15 
0.000288841 -6.63193e-11 -9.53466e-10 2.89421e-09 -6.2848e-06 -9.03559e-05 0.000274272 -1.58759e-16 
0.00137885 -2.62464e-10 -3.86799e-09 1.47267e-08 -2.37646e-05 -0.000350225 0.00133341 0 
0 0 0 0 0 0 0 0 
0 0 0 0 0 0 0 0 
0.0018397 -5.41488e-10 -4.56065e-09 2.29578e-08 -4.25486e-05 -0.000358363 0.00180396 -1.84294e-15 
0.000111271 -1.02284e-11 -4.56411e-10 2.71523e-09 -4.13359e-07 -1.8445e-05 0.000109731 1.69258e-17 
0 0 0 0 0 0 0 0 
0.000902605 -2.02865e-10 1.21927e-09 3.97054e-09 -4.40322e-05 0.000264644 0.000861813 -1.13632e-17 
0.00131097 -6.34638e-09 6.33456e-09 2.03368e-08 -9.2877e-06 0.000258227 0.00128525 0.730324 
0 0 0 0 0 0 0 0 
0.00310935 -1.73793e-09 8.84868e-09 3.85559e-08 -7.19128e-05 0.000605684 0.00304894 -0.100866 
0.000117626 -5.03065e-11 6.07521e-10 1.04088e-09 -4.90555e-06 5.92413e-05 0.0001015 -1.27626e-18 
0 0 0 0 0 0 0 0 
0 0 0 0 0 0 0 0 
0 0 0 0 0 0 0 0 
0.000185579 -1.32087e-09 5.2293e-11 3.146e-09 -2.59267e-06 4.71391e-05 0.000179473 -0.00137343 
0.000696514 -2.28108e-10 2.7238e-09 6.8272e-09 -2.16045e-05 0.000257976 0.000646617 1.98335e-17 
0.000107669 -3.40129e-11 2.46204e-10 8.50469e-10 -4.13315e-06 2.9918e-05 0.000103346 -1.59043e-18 
0.00115959 -5.18138e-10 6.37469e-09 9.99222e-09 -5.06437e-05 0.000623072 0.000976656 0 
0.000473336 2.64738e-09 6.22301e-10 3.94821e-09 -2.1637e-05 0.000173248 0.000439959 0.136284 
0.000936617 -8.42841e-10 2.7085e-09 6.87034e-09 -5.40176e-05 0.000363736 0.000861411 -0.0083152 
0.000207111 -2.21738e-11 9.67099e-10 6.02211e-09 -7.52944e-07 3.28392e-05 0.000204489 1.13773e-16 
0.00065954 -1.5984e-10 1.5057e-09 6.23683e-09 -1.64258e-05 0.000154732 0.000640922 1.07599e-17 
0.00107918 -2.75074e-10 1.92526e-09 3.70966e-09 -7.08729e-05 0.000496046 0.000955795 0 
0.000216376 -1.73602e-10 2.81686e-09 -6.49351e-08 0 0 -0.000216376 0.00610867 
0 0 0 0 0 0 0 0 
0.000381933 -1.99516e-09 1.01457e-08 6.43377e-10 0 0.000379706 4.11878e-05 -0.0140042 
0.0011225 -1.01516e-08 2.17227e-08 2.0506e-08 0 0.000846779 0.00073686 0.585525 
0.00111385 0 2.50588e-08 2.67186e-08 0 0.00076197 0.000812438 -2.06946e-16 
0.000472286 0 1.51928e-08 3.22858e-09 0 0.00046197 9.81721e-05 0 
0.00150754 0 7.83613e-09 -4.8955e-08 0 0.000238275 -0.00148859 4.23443e-16 
0.000609423 0 1.39054e-08 -1.44333e-08 0 0.000422826 -0.000438878 2.38784e-18 
0.000296867 0 9.57615e-09 -1.90109e-09 0 0.000291184 -5.78069e-05 -3.18378e-18 
0.000848842 -7.12106e-09 1.65161e-08 -1.69848e-08 0 0.000378929 -0.000759569 1.15378 
0.000511027 -1.08432e-09 1.17116e-08 -6.90562e-09 0 0.000448468 -0.000244999 0.0233002 
0.000471233 -4.80003e-10 2.75128e-10 -7.61394e-09 0 -3.01316e-05 -0.000470269 0.0435358 
0 0 0 0 0 0 0 0 
0 0 0 0 0 0 0 0 
0.000255651 0 -5.55333e-09 -3.9208e-09 0 -0.000208844 -0.000147449 -3.93763e-18 
0.000444982 0 -1.0011e-08 -1.06741e-08 0 -0.000304407 -0.000324569 -2.14905e-17 
0.00050307 -9.89146e-11 -1.61463e-08 -3.61189e-09 0 -0.000492082 -0.000104571 0.00209006 
0.000661163 0 -3.43671e-09 2.14703e-08 0 -0.000104501 0.000652853 2.29232e-16 
0.00174703 -3.82123e-09 -3.99565e-08 4.12855e-08 0 -0.00121211 0.00125813 0.767597 
0.000559947 -1.68113e-09 -1.8383e-08 1.97133e-09 0 -0.000549229 0.000109035 -0.0021805 
0.00133528 -1.17171e-08 -1.03349e-08 3.40515e-08 0 -0.000472139 0.00124902 0.751268 
0.00028082 0 -6.15732e-09 4.22459e-09 0 -0.000231558 0.000158874 -7.87526e-18 
0.000857193 7.3998e-10 -2.49294e-09 -2.60884e-09 0 -0.000856553 3.3122e-05 -0.332759 
0 0 0 0 0 0 0 0 
0.00162606 -1.85069e-08 1.71601e-08 -2.71237e-08 -0.000812249 0.000753136 -0.00119043 0 
0.00145569 -3.13514e-08 1.94423e-08 5.73125e-09 -0.000727145 0.00123353 0.000262133 1.68331 
2.51627e-05 -2.86388e-10 7.19147e-11 4.91441e-10 -1.25692e-05 3.15626e-06 2.15688e-05 5.74422e-19 
0.00135384 -1.38596e-08 -2.34345e-08 1.47057e-08 -0.000676266 -0.00102926 0.000562286 0.015573 
0.000415448 -4.09976e-09 -6.19736e-09 -5.92237e-09 -0.000207524 -0.000271502 -0.000236258 0.0209788 
0 0 0 0 0 0 0 0 
0 0 0 0 0 0 0 0 
0 0 0 0 0 0 0 0 
0 0 0 0 0 0 0 0 
0 0 0 0 0 0 0 0 
0 0 0 0 0 0 0 0 
0 0 0 0 0 0 0 0 
0 0 0 0 0 0 0 0 
0 0 0 0 0 0 0 0 
0 0 0 0 0 0 0 0 
0 0 0 0 0 0 0 0 
0 0 0 0 0 0 0 0 
0 0 0 0 0 0 0 0 
0 0 0 0 0 0 0 0 
0 0 0 0 0 0 0 0 
0 0 0 0 0 0 0 0 
0 0 0 0 0 0 0 0 
0 0 0 0 0 0 0 0 
0 0 0 0 0 0 0 0 
0.0268396 4.31409e-09 2.66837e-08 1.16635e-08 0.00393313 0.0243274 0.0106335 -6.10936e-15 
0 0 0 0 0 0 0 0 
0 0 0 0 0 0 0 0 
0 0 0 0 0 0 0 0 
0 0 0 0 0 0 0 0 
0.000561564 9.0264e-11 5.95998e-10 1.26654e-10 8.22932e-05 0.000543368 0.00011547 4.77294e-17 
0 0 0 0 0 0 0 0 
0 0 0 0 0 0 0 0 
0 0 0 0 0 0 0 0 
0 0 0 0 0 0 0 0 
0 0 0 0 0 0 0 0 
0 0 0 0 0 0 0 0 
0 0 0 0 0 0 0 0 
0 0 0 0 0 0 0 0 
0 0 0 0 0 0 0 0 
0 0 0 0 0 0 0 0 
0 0 0 0 0 0 0 0 
0 0 0 0 0 0 0 0 
0 0 0 0 0 0 0 0 
0 0 0 0 0 0 0 0 
0 0 0 0 0 0 0 0 
0 0 0 0 0 0 0 0 
0 0 0 0 0 0 0 0 
0 0 0 0 0 0 0 0 
0 0 0 0 0 0 0 0 
0 0 0 0 0 0 0 0 
0 0 0 0 0 0 0 0 
0 0 0 0 0 0 0 0 
0 0 0 0 0 0 0 0 
0 0 0 0 0 0 0 0 
0 0 0 0 0 0 0 0 
0 0 0 0 0 0 0 0 
0 0 0 0 0 0 0 0 
0 0 0 0 0 0 0 0 
0 0 0 0 0 0 0 0 
0 0 0 0 0 0 0 0 
0 0 0 0 0 0 0 0 
0 0 0 0 0 0 0 0 
0 0 0 0 0 0 0 0 
0 0 0 0 0 0 0 0 
0 0 0 0 0 0 0 0 
0 0 0 0 0 0 0 0 
0 0 0 0 0 0 0 0 
0 0 0 0 0 0 0 0 
0 0 0 0 0 0 0 0 
0.000877122 1.40986e-10 1.50419e-10 -9.3973e-10 0.000128536 0.000137137 -0.000856747 0 
0 0 0 0 0 0 0 0 
0 0 0 0 0 0 0 0 
0 0 0 0 0 0 0 0 
0 0 0 0 0 0 0 0 
0 0 0 0 0 0 0 0 
0 0 0 0 0 0 0 0 
0.00130024 5.08541e-10 -1.38495e-09 -9.87617e-10 0.000555344 -0.000170231 -0.00116328 -0.158176 
0 0 0 0 0 0 0 0 
0 0 0 0 0 0 0 0 
0 0 0 0 0 0 0 0 
0 0 0 0 0 0 0 0 
0 0 0 0 0 0 0 0 
0 0 0 0 0 0 0 0 
0 0 0 0 0 0 0 0 
0 0 0 0 0 0 0 0 
0 0 0 0 0 0 0 0 
0 0 0 0 0 0 0 0 
0 0 0 0 0 0 0 0 
0 0 0 0 0 0 0 0 
0 0 0 0 0 0 0 0 
0 0 0 0 0 0 0 0 
0 0 0 0 0 0 0 0 
0 0 0 0 0 0 0 0 
0 0 0 0 0 0 0 0 
0 0 0 0 0 0 0 0 
0 0 0 0 0 0 0 0 
0 0 0 0 0 0 0 0 
0 0 0 0 0 0 0 0 
0 0 0 0 0 0 0 0 
0 0 0 0 0 0 0 0 
0 0 0 0 0 0 0 0 
0 0 0 0 0 0 0 0 
0 0 0 0 0 0 0 0 
0 0 0 0 0 0 0 0 
0 0 0 0 0 0 0 0 
0 0 0 0 0 0 0 0 
0 0 0 0 0 0 0 0 
0 0 0 0 0 0 0 0 
0 0 0 0 0 0 0 0 
0 0 0 0 0 0 0 0 
0 0 0 0 0 0 0 0 
0 0 0 0 0 0 0 0 
0 0 0 0 0 0 0 0 
0 0 0 0 0 0 0 0 
0 0 0 0 0 0 0 0 
0 0 0 0 0 0 0 0 
0 0 0 0 0 0 0 0 
0 0 0 0 0 0 0 0 
0 0 0 0 0 0 0 0 
0 0 0 0 0 0 0 0 
0 0 0 0 0 0 0 0 
0 0 0 0 0 0 0 0 
0 0 0 0 0 0 0 0 
0 0 0 0 0 0 0 0 
0 0 0 0 0 0 0 0 
0 0 0 0 0 0 0 0 
0 0 0 0 0 0 0 0 
0 0 0 0 0 0 0 0 